Created on Fri May 28 22:51:38 2021 

        2304 atoms
           3 atom types
           0.000000  40.180000 xlo xhi
           0.000000  39.476002 ylo yhi
           0.000000  26.284000 zlo zhi
           0.000000   0.000000   0.000000 xy xz yz

Masses

    1    15.999400000 # O_2
    2    28.085500000 # Si3
    3    16.040000000 # CH4

Pair Coeffs

    1        0.060000        3.118146 # O_2 O_2
    2        0.402000        3.826410 # Si3 Si3
    3        0.294106        3.730000 # CH4 CH4

Atoms

       1      444        1     0.00000   10.06911    1.37969    9.22306
       2      444        1     0.00000   10.02089   18.35831    3.91894
       3      444        1     0.00000   20.06589   18.35831    2.65206
       4      444        1     0.00000    0.02411    1.37969   10.48994
       5      444        1     0.00000   10.02089   11.24869    3.91894
       6      444        1     0.00000   10.06911    8.48931    9.22306
       7      444        1     0.00000    0.02411    8.48931   10.48994
       8      444        1     0.00000   20.06589   11.24869    2.65206
       9      444        1     0.00000    7.78488    1.46653   10.52411
      10      444        1     0.00000   12.30513   18.27147    2.61789
      11      444        1     0.00000    2.26013   18.27147    3.95311
      12      444        1     0.00000   17.82987    1.46653    9.18889
      13      444        1     0.00000   12.30513   11.33553    2.61789
      14      444        1     0.00000    7.78488    8.40247   10.52411
      15      444        1     0.00000   17.82987    8.40247    9.18889
      16      444        1     0.00000    2.26013   11.33553    3.95311
      17      444        1     0.00000    8.02595    2.69621    8.21506
      18      444        1     0.00000   12.06405   17.04179    4.92694
      19      444        1     0.00000    2.01905   17.04179    1.64406
      20      444        1     0.00000   18.07095    2.69621   11.49794
      21      444        1     0.00000   12.06405   12.56521    4.92694
      22      444        1     0.00000    8.02595    7.17279    8.21506
      23      444        1     0.00000   18.07095    7.17279   11.49794
      24      444        1     0.00000    2.01905   12.56521    1.64406
      25      444        1     0.00000    7.97975    0.06711    8.31363
      26      444        1     0.00000   12.11025   19.67089    4.82837
      27      444        1     0.00000    2.06525   19.67089    1.74263
      28      444        1     0.00000   18.02475    0.06711   11.39937
      29      444        1     0.00000   12.11025    9.93611    4.82837
      30      444        1     0.00000    7.97975    9.80189    8.31363
      31      444        1     0.00000   18.02475    9.80189   11.39937
      32      444        1     0.00000    2.06525    9.93611    1.74263
      33      444        1     0.00000    6.60961    0.75991   12.77665
      34      444        1     0.00000   13.48039   18.97809    0.36535
      35      444        1     0.00000    3.43539   18.97809    6.20565
      36      444        1     0.00000   16.65461    0.75991    6.93635
      37      444        1     0.00000   13.48039   10.62891    0.36535
      38      444        1     0.00000    6.60961    9.10909   12.77665
      39      444        1     0.00000   16.65461    9.10909    6.93635
      40      444        1     0.00000    3.43539   10.62891    6.20565
      41      444        1     0.00000    6.62367   18.85966   10.71730
      42      444        1     0.00000   13.46633    0.87834    2.42470
      43      444        1     0.00000    3.42133    0.87834    4.14630
      44      444        1     0.00000   16.66867   18.85966    8.99570
      45      444        1     0.00000   13.46633    8.99066    2.42470
      46      444        1     0.00000    6.62367   10.74734   10.71730
      47      444        1     0.00000   16.66867   10.74734    8.99570
      48      444        1     0.00000    3.42133    8.99066    4.14630
      49      444        1     0.00000    5.16514    1.30863   10.65291
      50      444        1     0.00000   14.92486   18.42937    2.48909
      51      444        1     0.00000    4.87986   18.42937    4.08191
      52      444        1     0.00000   15.21014    1.30863    9.06009
      53      444        1     0.00000   14.92486   11.17763    2.48909
      54      444        1     0.00000    5.16514    8.56037   10.65291
      55      444        1     0.00000   15.21014    8.56037    9.06009
      56      444        1     0.00000    4.87986   11.17763    4.08191
      57      444        1     0.00000    5.84619    2.55804    1.39305
      58      444        1     0.00000   14.24381   17.17996   11.74895
      59      444        1     0.00000    4.19881   17.17996    7.96405
      60      444        1     0.00000   15.89119    2.55804    5.17795
      61      444        1     0.00000   14.24381   12.42705   11.74895
      62      444        1     0.00000    5.84619    7.31096    1.39305
      63      444        1     0.00000   15.89119    7.31096    5.17795
      64      444        1     0.00000    4.19881   12.42705    7.96405
      65      444        1     0.00000    4.08631    0.89808    0.36140
      66      444        1     0.00000   16.00369   18.83992   12.78059
      67      444        1     0.00000    5.95869   18.83992    6.93240
      68      444        1     0.00000   14.13131    0.89808    6.20959
      69      444        1     0.00000   16.00369   10.76708   12.78059
      70      444        1     0.00000    4.08631    8.97092    0.36140
      71      444        1     0.00000   14.13131    8.97092    6.20959
      72      444        1     0.00000    5.95869   10.76708    6.93240
      73      444        1     0.00000    5.89842    0.01974    2.05541
      74      444        1     0.00000   14.19158   19.71826   11.08659
      75      444        1     0.00000    4.14658   19.71826    8.62641
      76      444        1     0.00000   15.94342    0.01974    4.51559
      77      444        1     0.00000   14.19158    9.88874   11.08659
      78      444        1     0.00000    5.89842    9.84926    2.05541
      79      444        1     0.00000   15.94342    9.84926    4.51559
      80      444        1     0.00000    4.14658    9.88874    8.62641
      81      444        1     0.00000    2.15968    2.49686    1.16044
      82      444        1     0.00000   17.93032   17.24114   11.98156
      83      444        1     0.00000    7.88533   17.24114    7.73144
      84      444        1     0.00000   12.20467    2.49686    5.41056
      85      444        1     0.00000   17.93032   12.36586   11.98156
      86      444        1     0.00000    2.15968    7.37214    1.16044
      87      444        1     0.00000   12.20467    7.37214    5.41056
      88      444        1     0.00000    7.88533   12.36586    7.73144
      89      444        1     0.00000    1.69961    0.73031   12.40999
      90      444        1     0.00000   18.39039   19.00769    0.73201
      91      444        1     0.00000    8.34539   19.00769    5.83899
      92      444        1     0.00000   11.74461    0.73031    7.30301
      93      444        1     0.00000   18.39039   10.59931    0.73201
      94      444        1     0.00000    1.69961    9.13869   12.40999
      95      444        1     0.00000   11.74461    9.13869    7.30301
      96      444        1     0.00000    8.34539   10.59931    5.83899
      97      444        1     0.00000    2.61371    1.54154   10.07991
      98      444        1     0.00000   17.47629   18.19646    3.06209
      99      444        1     0.00000    7.43129   18.19646    3.50891
     100      444        1     0.00000   12.65871    1.54154    9.63309
     101      444        1     0.00000   17.47629   11.41054    3.06209
     102      444        1     0.00000    2.61371    8.32746   10.07991
     103      444        1     0.00000   12.65871    8.32746    9.63309
     104      444        1     0.00000    7.43129   11.41054    3.50891
     105      444        1     0.00000    1.46255   18.92677   10.29281
     106      444        1     0.00000   18.62745    0.81123    2.84919
     107      444        1     0.00000    8.58245    0.81123    3.72181
     108      444        1     0.00000   11.50755   18.92677    9.42019
     109      444        1     0.00000   18.62745    9.05777    2.84919
     110      444        1     0.00000    1.46255   10.68023   10.29281
     111      444        1     0.00000   11.50755   10.68023    9.42019
     112      444        1     0.00000    8.58245    9.05777    3.72181
     113      444        1     0.00000    4.42181    2.59160    8.48448
     114      444        1     0.00000   15.66819   17.14640    4.65752
     115      444        1     0.00000    5.62319   17.14640    1.91348
     116      444        1     0.00000   14.46681    2.59160   11.22852
     117      444        1     0.00000   15.66819   12.46060    4.65752
     118      444        1     0.00000    4.42181    7.27740    8.48448
     119      444        1     0.00000   14.46681    7.27740   11.22852
     120      444        1     0.00000    5.62319   12.46060    1.91348
     121      444        1     0.00000    9.86620   16.87204    9.42150
     122      444        1     0.00000   10.22380    2.86596    3.72050
     123      444        1     0.00000    0.17880    2.86596    2.85050
     124      444        1     0.00000   19.91120   16.87204   10.29150
     125      444        1     0.00000   10.22380    7.00304    3.72050
     126      444        1     0.00000    9.86620   12.73496    9.42150
     127      444        1     0.00000   19.91120   12.73496   10.29150
     128      444        1     0.00000    0.17880    7.00304    2.85050
     129      444        1     0.00000    7.39513   16.40425   10.17585
     130      444        1     0.00000   12.69487    3.33375    2.96615
     131      444        1     0.00000    2.64987    3.33375    3.60485
     132      444        1     0.00000   17.44013   16.40425    9.53715
     133      444        1     0.00000   12.69487    6.53525    2.96615
     134      444        1     0.00000    7.39513   13.20275   10.17585
     135      444        1     0.00000   17.44013   13.20275    9.53715
     136      444        1     0.00000    2.64987    6.53525    3.60485
     137      444        1     0.00000    8.56437   14.80350    8.45162
     138      444        1     0.00000   11.52563    4.93450    4.69038
     139      444        1     0.00000    1.48063    4.93450    1.88062
     140      444        1     0.00000   18.60937   14.80350   11.26138
     141      444        1     0.00000    6.46295   16.99639   12.56507
     142      444        1     0.00000   13.62705    2.74161    0.57693
     143      444        1     0.00000    3.58205    2.74161    5.99407
     144      444        1     0.00000   16.50795   16.99639    7.14793
     145      444        1     0.00000   13.62705    7.12739    0.57693
     146      444        1     0.00000    6.46295   12.61061   12.56507
     147      444        1     0.00000   16.50795   12.61061    7.14793
     148      444        1     0.00000    3.58205    7.12739    5.99407
     149      444        1     0.00000    4.84169   16.93915   10.50046
     150      444        1     0.00000   15.24831    2.79885    2.64154
     151      444        1     0.00000    5.20331    2.79885    3.92946
     152      444        1     0.00000   14.88669   16.93915    9.21254
     153      444        1     0.00000   15.24831    7.07015    2.64154
     154      444        1     0.00000    4.84169   12.66785   10.50046
     155      444        1     0.00000   14.88669   12.66785    9.21254
     156      444        1     0.00000    5.20331    7.07015    3.92946
     157      444        1     0.00000    5.91249   14.80350    0.76092
     158      444        1     0.00000   14.17751    4.93450   12.38108
     159      444        1     0.00000    4.13251    4.93450    7.33192
     160      444        1     0.00000   15.95749   14.80350    5.81008
     161      444        1     0.00000    3.96978   16.40820    0.00394
     162      444        1     0.00000   16.12022    3.32980   13.13806
     163      444        1     0.00000    6.07522    3.32980    6.57494
     164      444        1     0.00000   14.01478   16.40820    6.56706
     165      444        1     0.00000   16.12022    6.53920   13.13806
     166      444        1     0.00000    3.96978   13.19880    0.00394
     167      444        1     0.00000   14.01478   13.19880    6.56706
     168      444        1     0.00000    6.07522    6.53920    6.57494
     169      444        1     0.00000    1.90453   14.80350    0.26941
     170      444        1     0.00000   18.18547    4.93450   12.87259
     171      444        1     0.00000    8.14047    4.93450    6.84041
     172      444        1     0.00000   11.94953   14.80350    6.30159
     173      444        1     0.00000    1.62528   17.11285   12.18920
     174      444        1     0.00000   18.46472    2.62515    0.95279
     175      444        1     0.00000    8.41972    2.62515    5.61820
     176      444        1     0.00000   11.67028   17.11285    7.52379
     177      444        1     0.00000   18.46472    7.24385    0.95279
     178      444        1     0.00000    1.62528   12.49415   12.18920
     179      444        1     0.00000   11.67028   12.49415    7.52379
     180      444        1     0.00000    8.41972    7.24385    5.61820
     181      444        1     0.00000    2.36459   16.52071    9.73297
     182      444        1     0.00000   17.72541    3.21729    3.40903
     183      444        1     0.00000    7.68041    3.21729    3.16197
     184      444        1     0.00000   12.40959   16.52071    9.98003
     185      444        1     0.00000   17.72541    6.65171    3.40903
     186      444        1     0.00000    2.36459   13.08629    9.73297
     187      444        1     0.00000   12.40959   13.08629    9.98003
     188      444        1     0.00000    7.68041    6.65171    3.16197
     189      444        1     0.00000    4.25104   14.80350    9.08506
     190      444        1     0.00000   15.83896    4.93450    4.05694
     191      444        1     0.00000    5.79396    4.93450    2.51406
     192      444        1     0.00000   14.29604   14.80350   10.62794
     193      444        2     0.00000    8.46593    1.40337    9.06535
     194      444        2     0.00000   11.62407   18.33463    4.07665
     195      444        2     0.00000    1.57907   18.33463    2.49435
     196      444        2     0.00000   18.51093    1.40337   10.64765
     197      444        2     0.00000   11.62407   11.27237    4.07665
     198      444        2     0.00000    8.46593    8.46563    9.06535
     199      444        2     0.00000   18.51093    8.46563   10.64765
     200      444        2     0.00000    1.57907   11.27237    2.49435
     201      444        2     0.00000    6.54733    0.66320   11.17070
     202      444        2     0.00000   13.54267   19.07480    1.97130
     203      444        2     0.00000    3.49767   19.07480    4.59970
     204      444        2     0.00000   16.59233    0.66320    8.54230
     205      444        2     0.00000   13.54267   10.53220    1.97130
     206      444        2     0.00000    6.54733    9.20580   11.17070
     207      444        2     0.00000   16.59233    9.20580    8.54230
     208      444        2     0.00000    3.49767   10.53220    4.59970
     209      444        2     0.00000    5.60913    1.05796    0.86080
     210      444        2     0.00000   14.48087   18.68004   12.28120
     211      444        2     0.00000    4.43587   18.68004    7.43180
     212      444        2     0.00000   15.65413    1.05796    5.71020
     213      444        2     0.00000   14.48087   10.92696   12.28120
     214      444        2     0.00000    5.60913    8.81104    0.86080
     215      444        2     0.00000   15.65413    8.81104    5.71020
     216      444        2     0.00000    4.43587   10.92696    7.43180
     217      444        2     0.00000    2.50321    1.01453    0.63213
     218      444        2     0.00000   17.58679   18.72347   12.50987
     219      444        2     0.00000    7.54179   18.72347    7.20313
     220      444        2     0.00000   12.54821    1.01453    5.93887
     221      444        2     0.00000   17.58679   10.88353   12.50987
     222      444        2     0.00000    2.50321    8.85447    0.63213
     223      444        2     0.00000   12.54821    8.85447    5.93887
     224      444        2     0.00000    7.54179   10.88353    7.20313
     225      444        2     0.00000    1.44849    0.71057   10.81981
     226      444        2     0.00000   18.64151   19.02743    2.32219
     227      444        2     0.00000    8.59651   19.02743    4.24881
     228      444        2     0.00000   11.49349    0.71057    8.89319
     229      444        2     0.00000   18.64151   10.57957    2.32219
     230      444        2     0.00000    1.44849    9.15843   10.81981
     231      444        2     0.00000   11.49349    9.15843    8.89319
     232      444        2     0.00000    8.59651   10.57957    4.24881
     233      444        2     0.00000    4.08631    1.35600    9.45830
     234      444        2     0.00000   16.00369   18.38200    3.68370
     235      444        2     0.00000    5.95869   18.38200    2.88730
     236      444        2     0.00000   14.13131    1.35600   10.25470
     237      444        2     0.00000   16.00369   11.22500    3.68370
     238      444        2     0.00000    4.08631    8.51300    9.45830
     239      444        2     0.00000   14.13131    8.51300   10.25470
     240      444        2     0.00000    5.95869   11.22500    2.88730
     241      444        2     0.00000    8.42776   16.33122    8.94313
     242      444        2     0.00000   11.66225    3.40678    4.19887
     243      444        2     0.00000    1.61725    3.40678    2.37213
     244      444        2     0.00000   18.47275   16.33122   10.76987
     245      444        2     0.00000   11.66225    6.46222    4.19887
     246      444        2     0.00000    8.42775   13.27578    8.94313
     247      444        2     0.00000   18.47275   13.27578   10.76987
     248      444        2     0.00000    1.61725    6.46222    2.37213
     249      444        2     0.00000    6.33237   17.30036   10.98803
     250      444        2     0.00000   13.75763    2.43764    2.15397
     251      444        2     0.00000    3.71263    2.43764    4.41703
     252      444        2     0.00000   16.37737   17.30036    8.72497
     253      444        2     0.00000   13.75763    7.43136    2.15397
     254      444        2     0.00000    6.33237   12.30664   10.98803
     255      444        2     0.00000   16.37737   12.30664    8.72497
     256      444        2     0.00000    3.71263    7.43136    4.41703
     257      444        2     0.00000    5.49060   16.33912    0.52831
     258      444        2     0.00000   14.59940    3.39888   12.61369
     259      444        2     0.00000    4.55440    3.39888    7.09931
     260      444        2     0.00000   15.53560   16.33912    6.04269
     261      444        2     0.00000   14.59940    6.47012   12.61369
     262      444        2     0.00000    5.49060   13.26788    0.52831
     263      444        2     0.00000   15.53560   13.26788    6.04269
     264      444        2     0.00000    4.55440    6.47012    7.09931
     265      444        2     0.00000    2.38067   16.34109    0.24050
     266      444        2     0.00000   17.70933    3.39691   12.90150
     267      444        2     0.00000    7.66434    3.39691    6.81150
     268      444        2     0.00000   12.42567   16.34109    6.33050
     269      444        2     0.00000   17.70933    6.47209   12.90150
     270      444        2     0.00000    2.38067   13.26591    0.24050
     271      444        2     0.00000   12.42567   13.26591    6.33050
     272      444        2     0.00000    7.66434    6.47209    6.81150
     273      444        2     0.00000    1.31991   17.35760   10.62794
     274      444        2     0.00000   18.77009    2.38040    2.51406
     275      444        2     0.00000    8.72509    2.38040    4.05694
     276      444        2     0.00000   11.36491   17.35760    9.08506
     277      444        2     0.00000   18.77009    7.48860    2.51406
     278      444        2     0.00000    1.31991   12.24940   10.62794
     279      444        2     0.00000   11.36491   12.24940    9.08506
     280      444        2     0.00000    8.72509    7.48860    4.05694
     281      444        2     0.00000    3.91152   16.35886    9.32031
     282      444        2     0.00000   16.17848    3.37915    3.82169
     283      444        2     0.00000    6.13348    3.37915    2.74931
     284      444        2     0.00000   13.95652   16.35886   10.39269
     285      444        2     0.00000   16.17848    6.48985    3.82169
     286      444        2     0.00000    3.91152   13.24815    9.32031
     287      444        2     0.00000   13.95652   13.24815   10.39269
     288      444        2     0.00000    6.13348    6.48985    2.74931
     289      444        1     0.00000   10.06911    1.37969   22.36506
     290      444        1     0.00000   10.02089   18.35831   17.06094
     291      444        1     0.00000   20.06589   18.35831   15.79406
     292      444        1     0.00000    0.02411    1.37969   23.63194
     293      444        1     0.00000   10.02089   11.24869   17.06094
     294      444        1     0.00000   10.06911    8.48931   22.36506
     295      444        1     0.00000    0.02411    8.48931   23.63194
     296      444        1     0.00000   20.06589   11.24869   15.79406
     297      444        1     0.00000    7.78488    1.46653   23.66611
     298      444        1     0.00000   12.30513   18.27147   15.75989
     299      444        1     0.00000    2.26013   18.27147   17.09511
     300      444        1     0.00000   17.82987    1.46653   22.33089
     301      444        1     0.00000   12.30513   11.33553   15.75989
     302      444        1     0.00000    7.78488    8.40247   23.66611
     303      444        1     0.00000   17.82987    8.40247   22.33089
     304      444        1     0.00000    2.26013   11.33553   17.09511
     305      444        1     0.00000    8.02595    2.69621   21.35706
     306      444        1     0.00000   12.06405   17.04179   18.06894
     307      444        1     0.00000    2.01905   17.04179   14.78606
     308      444        1     0.00000   18.07095    2.69621   24.63994
     309      444        1     0.00000   12.06405   12.56521   18.06894
     310      444        1     0.00000    8.02595    7.17279   21.35706
     311      444        1     0.00000   18.07095    7.17279   24.63994
     312      444        1     0.00000    2.01905   12.56521   14.78606
     313      444        1     0.00000    7.97975    0.06711   21.45563
     314      444        1     0.00000   12.11025   19.67089   17.97037
     315      444        1     0.00000    2.06525   19.67089   14.88463
     316      444        1     0.00000   18.02475    0.06711   24.54137
     317      444        1     0.00000   12.11025    9.93611   17.97037
     318      444        1     0.00000    7.97975    9.80189   21.45563
     319      444        1     0.00000   18.02475    9.80189   24.54137
     320      444        1     0.00000    2.06525    9.93611   14.88463
     321      444        1     0.00000    6.60961    0.75991   25.91865
     322      444        1     0.00000   13.48039   18.97809   13.50735
     323      444        1     0.00000    3.43539   18.97809   19.34765
     324      444        1     0.00000   16.65461    0.75991   20.07835
     325      444        1     0.00000   13.48039   10.62891   13.50735
     326      444        1     0.00000    6.60961    9.10909   25.91865
     327      444        1     0.00000   16.65461    9.10909   20.07835
     328      444        1     0.00000    3.43539   10.62891   19.34765
     329      444        1     0.00000    6.62367   18.85966   23.85930
     330      444        1     0.00000   13.46633    0.87834   15.56670
     331      444        1     0.00000    3.42133    0.87834   17.28830
     332      444        1     0.00000   16.66867   18.85966   22.13770
     333      444        1     0.00000   13.46633    8.99066   15.56670
     334      444        1     0.00000    6.62367   10.74734   23.85930
     335      444        1     0.00000   16.66867   10.74734   22.13770
     336      444        1     0.00000    3.42133    8.99066   17.28830
     337      444        1     0.00000    5.16514    1.30863   23.79491
     338      444        1     0.00000   14.92486   18.42937   15.63109
     339      444        1     0.00000    4.87986   18.42937   17.22391
     340      444        1     0.00000   15.21014    1.30863   22.20209
     341      444        1     0.00000   14.92486   11.17763   15.63109
     342      444        1     0.00000    5.16514    8.56037   23.79491
     343      444        1     0.00000   15.21014    8.56037   22.20209
     344      444        1     0.00000    4.87986   11.17763   17.22391
     345      444        1     0.00000    5.84619    2.55804   14.53505
     346      444        1     0.00000   14.24381   17.17996   24.89095
     347      444        1     0.00000    4.19881   17.17996   21.10605
     348      444        1     0.00000   15.89119    2.55804   18.31995
     349      444        1     0.00000   14.24381   12.42705   24.89095
     350      444        1     0.00000    5.84619    7.31096   14.53505
     351      444        1     0.00000   15.89119    7.31096   18.31995
     352      444        1     0.00000    4.19881   12.42705   21.10605
     353      444        1     0.00000    4.08631    0.89808   13.50340
     354      444        1     0.00000   16.00369   18.83992   25.92260
     355      444        1     0.00000    5.95869   18.83992   20.07440
     356      444        1     0.00000   14.13131    0.89808   19.35159
     357      444        1     0.00000   16.00369   10.76708   25.92260
     358      444        1     0.00000    4.08631    8.97092   13.50340
     359      444        1     0.00000   14.13131    8.97092   19.35159
     360      444        1     0.00000    5.95869   10.76708   20.07440
     361      444        1     0.00000    5.89842    0.01974   15.19741
     362      444        1     0.00000   14.19158   19.71826   24.22859
     363      444        1     0.00000    4.14658   19.71826   21.76841
     364      444        1     0.00000   15.94342    0.01974   17.65759
     365      444        1     0.00000   14.19158    9.88874   24.22859
     366      444        1     0.00000    5.89842    9.84926   15.19741
     367      444        1     0.00000   15.94342    9.84926   17.65759
     368      444        1     0.00000    4.14658    9.88874   21.76841
     369      444        1     0.00000    2.15968    2.49686   14.30244
     370      444        1     0.00000   17.93032   17.24114   25.12356
     371      444        1     0.00000    7.88533   17.24114   20.87344
     372      444        1     0.00000   12.20467    2.49686   18.55256
     373      444        1     0.00000   17.93032   12.36586   25.12356
     374      444        1     0.00000    2.15968    7.37214   14.30244
     375      444        1     0.00000   12.20467    7.37214   18.55256
     376      444        1     0.00000    7.88533   12.36586   20.87344
     377      444        1     0.00000    1.69961    0.73031   25.55199
     378      444        1     0.00000   18.39039   19.00769   13.87401
     379      444        1     0.00000    8.34539   19.00769   18.98099
     380      444        1     0.00000   11.74461    0.73031   20.44501
     381      444        1     0.00000   18.39039   10.59931   13.87401
     382      444        1     0.00000    1.69961    9.13869   25.55199
     383      444        1     0.00000   11.74461    9.13869   20.44501
     384      444        1     0.00000    8.34539   10.59931   18.98099
     385      444        1     0.00000    2.61371    1.54154   23.22191
     386      444        1     0.00000   17.47629   18.19646   16.20409
     387      444        1     0.00000    7.43129   18.19646   16.65091
     388      444        1     0.00000   12.65871    1.54154   22.77509
     389      444        1     0.00000   17.47629   11.41054   16.20409
     390      444        1     0.00000    2.61371    8.32746   23.22191
     391      444        1     0.00000   12.65871    8.32746   22.77509
     392      444        1     0.00000    7.43129   11.41054   16.65091
     393      444        1     0.00000    1.46255   18.92677   23.43481
     394      444        1     0.00000   18.62745    0.81123   15.99119
     395      444        1     0.00000    8.58245    0.81123   16.86381
     396      444        1     0.00000   11.50755   18.92677   22.56219
     397      444        1     0.00000   18.62745    9.05777   15.99119
     398      444        1     0.00000    1.46255   10.68023   23.43481
     399      444        1     0.00000   11.50755   10.68023   22.56219
     400      444        1     0.00000    8.58245    9.05777   16.86381
     401      444        1     0.00000    4.42181    2.59160   21.62648
     402      444        1     0.00000   15.66819   17.14640   17.79952
     403      444        1     0.00000    5.62319   17.14640   15.05548
     404      444        1     0.00000   14.46681    2.59160   24.37052
     405      444        1     0.00000   15.66819   12.46060   17.79952
     406      444        1     0.00000    4.42181    7.27740   21.62648
     407      444        1     0.00000   14.46681    7.27740   24.37052
     408      444        1     0.00000    5.62319   12.46060   15.05548
     409      444        1     0.00000    9.86620   16.87204   22.56350