Created on Sat May 08 14:43:07 2021 

         304 atoms
           3 atom types
           0.000000  40.180000 xlo xhi
           0.000000  39.476000 ylo yhi
           0.000000  26.284000 zlo zhi
           0.000000   0.000000   0.000000 xy xz yz

Masses

    1    15.999400000 # O_2
    2    28.085500000 # Si3
	3 	 16.040000000 # CH4

Pair Coeffs

    1        0.060000        3.118146 # O_2 O_2
    2        0.402000        3.826410 # Si3 Si3
	3        0.294106        3.730000 # CH4 CH4

Atoms

       1      444        1     0.00000   10.06911    1.37969    9.22306
       2      444        1     0.00000    7.78488    1.46653   10.52411
       3      444        1     0.00000    8.02595    2.69621    8.21506
       4      444        1     0.00000    7.97975    0.06711    8.31363
       5      444        1     0.00000    6.60961    0.75991   12.77665
       6      444        1     0.00000    6.62367   18.85966   10.71730
       7      444        1     0.00000    5.16514    1.30863   10.65291
       8      444        1     0.00000    5.84619    2.55804    1.39305
       9      444        1     0.00000    4.08631    0.89808    0.36140
      10      444        1     0.00000    5.89842    0.01974    2.05541
      11      444        1     0.00000    2.15968    2.49686    1.16044
      12      444        1     0.00000    1.69961    0.73031   12.40999
      13      444        1     0.00000    2.61371    1.54154   10.07991
      14      444        1     0.00000    1.46255   18.92677   10.29281
      15      444        1     0.00000    4.42181    2.59160    8.48448
      16      444        1     0.00000    9.86620   16.87204    9.42150
      17      444        1     0.00000    7.39513   16.40425   10.17585
      18      444        1     0.00000    8.56437   14.80350    8.45162
      19      444        1     0.00000    6.46295   16.99639   12.56507
      20      444        1     0.00000    4.84169   16.93915   10.50046
      21      444        1     0.00000    5.91249   14.80350    0.76092
      22      444        1     0.00000    3.96978   16.40820    0.00394
      23      444        1     0.00000    1.90453   14.80350    0.26941
      24      444        1     0.00000    1.62528   17.11285   12.18920
      25      444        1     0.00000    2.36459   16.52071    9.73297
      26      444        1     0.00000    4.25104   14.80350    9.08506
      27      444        2     0.00000    8.46593    1.40337    9.06535
      28      444        2     0.00000    6.54733    0.66320   11.17070
      29      444        2     0.00000    5.60913    1.05796    0.86080
      30      444        2     0.00000    2.50321    1.01453    0.63213
      31      444        2     0.00000    1.44849    0.71057   10.81981
      32      444        2     0.00000    4.08631    1.35600    9.45830
      33      444        2     0.00000    8.42776   16.33122    8.94313
      34      444        2     0.00000    6.33237   17.30036   10.98803
      35      444        2     0.00000    5.49060   16.33912    0.52831
      36      444        2     0.00000    2.38067   16.34109    0.24050
      37      444        2     0.00000    1.31991   17.35760   10.62794
      38      444        2     0.00000    3.91152   16.35885    9.32031
      39      444        1     0.00000   10.06911    1.37969   22.36506
      40      444        1     0.00000    7.78488    1.46653   23.66611
      41      444        1     0.00000    8.02595    2.69621   21.35706
      42      444        1     0.00000    7.97975    0.06711   21.45563
      43      444        1     0.00000    6.60961    0.75991   25.91865
      44      444        1     0.00000    6.62367   18.85966   23.85930
      45      444        1     0.00000    5.16514    1.30863   23.79491
      46      444        1     0.00000    5.84619    2.55804   14.53505
      47      444        1     0.00000    4.08631    0.89808   13.50340
      48      444        1     0.00000    5.89842    0.01974   15.19741
      49      444        1     0.00000    2.15968    2.49686   14.30244
      50      444        1     0.00000    1.69961    0.73031   25.55199
      51      444        1     0.00000    2.61371    1.54154   23.22191
      52      444        1     0.00000    1.46255   18.92677   23.43481
      53      444        1     0.00000    4.42181    2.59160   21.62648
      54      444        1     0.00000    9.86620   16.87204   22.56350
      55      444        1     0.00000    7.39513   16.40425   23.31785
      56      444        1     0.00000    8.56437   14.80350   21.59362
      57      444        1     0.00000    6.46295   16.99639   25.70707
      58      444        1     0.00000    4.84169   16.93915   23.64246
      59      444        1     0.00000    5.91249   14.80350   13.90292
      60      444        1     0.00000    3.96978   16.40820   13.14594
      61      444        1     0.00000    1.90453   14.80350   13.41141
      62      444        1     0.00000    1.62528   17.11285   25.33120
      63      444        1     0.00000    2.36459   16.52071   22.87497
      64      444        1     0.00000    4.25104   14.80350   22.22706
      65      444        2     0.00000    8.46593    1.40337   22.20735
      66      444        2     0.00000    6.54733    0.66320   24.31270
      67      444        2     0.00000    5.60913    1.05796   14.00280
      68      444        2     0.00000    2.50321    1.01453   13.77413
      69      444        2     0.00000    1.44849    0.71057   23.96181
      70      444        2     0.00000    4.08631    1.35600   22.60030
      71      444        2     0.00000    8.42776   16.33122   22.08513
      72      444        2     0.00000    6.33237   17.30036   24.13003
      73      444        2     0.00000    5.49060   16.33912   13.67031
      74      444        2     0.00000    2.38067   16.34109   13.38250
      75      444        2     0.00000    1.31991   17.35760   23.76994
      76      444        2     0.00000    3.91152   16.35885   22.46231
      77      444        1     0.00000   10.06911   21.11769    9.22306
      78      444        1     0.00000    7.78488   21.20453   10.52411
      79      444        1     0.00000    8.02596   22.43421    8.21506
      80      444        1     0.00000    7.97975   19.80511    8.31363
      81      444        1     0.00000    6.60961   20.49791   12.77665
      82      444        1     0.00000    6.62367   38.59766   10.71730
      83      444        1     0.00000    5.16514   21.04663   10.65291
      84      444        1     0.00000    5.84619   22.29604    1.39305
      85      444        1     0.00000    4.08631   20.63608    0.36140
      86      444        1     0.00000    5.89842   19.75774    2.05541
      87      444        1     0.00000    2.15968   22.23486    1.16044
      88      444        1     0.00000    1.69961   20.46831   12.40999
      89      444        1     0.00000    2.61371   21.27954   10.07991
      90      444        1     0.00000    1.46255   38.66477   10.29281
      91      444        1     0.00000    4.42181   22.32960    8.48448
      92      444        1     0.00000    9.86620   36.61004    9.42150
      93      444        1     0.00000    7.39513   36.14225   10.17585
      94      444        1     0.00000    8.56437   34.54150    8.45162
      95      444        1     0.00000    6.46295   36.73439   12.56507
      96      444        1     0.00000    4.84169   36.67715   10.50046
      97      444        1     0.00000    5.91249   34.54150    0.76092
      98      444        1     0.00000    3.96978   36.14620    0.00394
      99      444        1     0.00000    1.90453   34.54150    0.26941
     100      444        1     0.00000    1.62528   36.85085   12.18920
     101      444        1     0.00000    2.36459   36.25871    9.73297
     102      444        1     0.00000    4.25104   34.54150    9.08506
     103      444        2     0.00000    8.46593   21.14137    9.06535
     104      444        2     0.00000    6.54733   20.40120   11.17070
     105      444        2     0.00000    5.60913   20.79596    0.86080
     106      444        2     0.00000    2.50321   20.75253    0.63213
     107      444        2     0.00000    1.44849   20.44857   10.81981
     108      444        2     0.00000    4.08631   21.09400    9.45830
     109      444        2     0.00000    8.42776   36.06922    8.94313
     110      444        2     0.00000    6.33237   37.03836   10.98803
     111      444        2     0.00000    5.49060   36.07712    0.52831
     112      444        2     0.00000    2.38067   36.07909    0.24050
     113      444        2     0.00000    1.31991   37.09560   10.62794
     114      444        2     0.00000    3.91152   36.09685    9.32031
     115      444        1     0.00000   10.06911   21.11769   22.36506
     116      444        1     0.00000    7.78488   21.20453   23.66611
     117      444        1     0.00000    8.02596   22.43421   21.35706
     118      444        1     0.00000    7.97975   19.80511   21.45563
     119      444        1     0.00000    6.60961   20.49791   25.91865
     120      444        1     0.00000    6.62367   38.59766   23.85930
     121      444        1     0.00000    5.16514   21.04663   23.79491
     122      444        1     0.00000    5.84619   22.29604   14.53505
     123      444        1     0.00000    4.08631   20.63608   13.50340
     124      444        1     0.00000    5.89842   19.75774   15.19741
     125      444        1     0.00000    2.15968   22.23486   14.30244
     126      444        1     0.00000    1.69961   20.46831   25.55199
     127      444        1     0.00000    2.61371   21.27954   23.22191
     128      444        1     0.00000    1.46255   38.66477   23.43481
     129      444        1     0.00000    4.42181   22.32960   21.62648
     130      444        1     0.00000    9.86620   36.61004   22.56350
     131      444        1     0.00000    7.39513   36.14225   23.31785
     132      444        1     0.00000    8.56437   34.54150   21.59362
     133      444        1     0.00000    6.46295   36.73439   25.70707
     134      444        1     0.00000    4.84169   36.67715   23.64246
     135      444        1     0.00000    5.91249   34.54150   13.90292
     136      444        1     0.00000    3.96978   36.14620   13.14594
     137      444        1     0.00000    1.90453   34.54150   13.41141
     138      444        1     0.00000    1.62528   36.85085   25.33120
     139      444        1     0.00000    2.36459   36.25871   22.87497
     140      444        1     0.00000    4.25104   34.54150   22.22706
     141      444        2     0.00000    8.46593   21.14137   22.20735
     142      444        2     0.00000    6.54733   20.40120   24.31270
     143      444        2     0.00000    5.60913   20.79596   14.00280
     144      444        2     0.00000    2.50321   20.75253   13.77413
     145      444        2     0.00000    1.44849   20.44857   23.96181
     146      444        2     0.00000    4.08631   21.09400   22.60030
     147      444        2     0.00000    8.42776   36.06922   22.08513
     148      444        2     0.00000    6.33237   37.03836   24.13003
     149      444        2     0.00000    5.49060   36.07712   13.67031
     150      444        2     0.00000    2.38067   36.07909   13.38250
     151      444        2     0.00000    1.31991   37.09560   23.76994
     152      444        2     0.00000    3.91152   36.09685   22.46231
     153      444        1     0.00000   30.15911    1.37969    9.22306
     154      444        1     0.00000   27.87488    1.46653   10.52411
     155      444        1     0.00000   28.11595    2.69621    8.21506
     156      444        1     0.00000   28.06975    0.06711    8.31363
     157      444        1     0.00000   26.69961    0.75991   12.77665
     158      444        1     0.00000   26.71367   18.85966   10.71730
     159      444        1     0.00000   25.25514    1.30863   10.65291
     160      444        1     0.00000   25.93619    2.55804    1.39305
     161      444        1     0.00000   24.17631    0.89808    0.36140
     162      444        1     0.00000   25.98842    0.01974    2.05541
     163      444        1     0.00000   22.24967    2.49686    1.16044
     164      444        1     0.00000   21.78961    0.73031   12.40999
     165      444        1     0.00000   22.70371    1.54154   10.07991
     166      444        1     0.00000   21.55255   18.92677   10.29281
     167      444        1     0.00000   24.51181    2.59160    8.48448
     168      444        1     0.00000   29.95620   16.87204    9.42150
     169      444        1     0.00000   27.48513   16.40425   10.17585
     170      444        1     0.00000   28.65437   14.80350    8.45162
     171      444        1     0.00000   26.55295   16.99639   12.56507
     172      444        1     0.00000   24.93169   16.93915   10.50046
     173      444        1     0.00000   26.00249   14.80350    0.76092
     174      444        1     0.00000   24.05978   16.40820    0.00394
     175      444        1     0.00000   21.99453   14.80350    0.26941
     176      444        1     0.00000   21.71528   17.11285   12.18920
     177      444        1     0.00000   22.45459   16.52071    9.73297
     178      444        1     0.00000   24.34104   14.80350    9.08506
     179      444        2     0.00000   28.55593    1.40337    9.06535
     180      444        2     0.00000   26.63733    0.66320   11.17070
     181      444        2     0.00000   25.69913    1.05796    0.86080
     182      444        2     0.00000   22.59321    1.01453    0.63213
     183      444        2     0.00000   21.53849    0.71057   10.81981
     184      444        2     0.00000   24.17631    1.35600    9.45830
     185      444        2     0.00000   28.51776   16.33122    8.94313
     186      444        2     0.00000   26.42237   17.30036   10.98803
     187      444        2     0.00000   25.58060   16.33912    0.52831
     188      444        2     0.00000   22.47067   16.34109    0.24050
     189      444        2     0.00000   21.40991   17.35760   10.62794
     190      444        2     0.00000   24.00152   16.35885    9.32031
     191      444        1     0.00000   30.15911    1.37969   22.36506
     192      444        1     0.00000   27.87488    1.46653   23.66611
     193      444        1     0.00000   28.11595    2.69621   21.35706
     194      444        1     0.00000   28.06975    0.06711   21.45563
     195      444        1     0.00000   26.69961    0.75991   25.91865
     196      444        1     0.00000   26.71367   18.85966   23.85930
     197      444        1     0.00000   25.25514    1.30863   23.79491
     198      444        1     0.00000   25.93619    2.55804   14.53505
     199      444        1     0.00000   24.17631    0.89808   13.50340
     200      444        1     0.00000   25.98842    0.01974   15.19741
     201      444        1     0.00000   22.24967    2.49686   14.30244
     202      444        1     0.00000   21.78961    0.73031   25.55199
     203      444        1     0.00000   22.70371    1.54154   23.22191
     204      444        1     0.00000   21.55255   18.92677   23.43481
     205      444        1     0.00000   24.51181    2.59160   21.62648
     206      444        1     0.00000   29.95620   16.87204   22.56350
     207      444        1     0.00000   27.48513   16.40425   23.31785
     208      444        1     0.00000   28.65437   14.80350   21.59362
     209      444        1     0.00000   26.55295   16.99639   25.70707
     210      444        1     0.00000   24.93169   16.93915   23.64246
     211      444        1     0.00000   26.00249   14.80350   13.90292
     212      444        1     0.00000   24.05978   16.40820   13.14594
     213      444        1     0.00000   21.99453   14.80350   13.41141
     214      444        1     0.00000   21.71528   17.11285   25.33120
     215      444        1     0.00000   22.45459   16.52071   22.87497
     216      444        1     0.00000   24.34104   14.80350   22.22706
     217      444        2     0.00000   28.55593    1.40337   22.20735
     218      444        2     0.00000   26.63733    0.66320   24.31270
     219      444        2     0.00000   25.69913    1.05796   14.00280
     220      444        2     0.00000   22.59321    1.01453   13.77413
     221      444        2     0.00000   21.53849    0.71057   23.96181
     222      444        2     0.00000   24.17631    1.35600   22.60030
     223      444        2     0.00000   28.51776   16.33122   22.08513
     224      444        2     0.00000   26.42237   17.30036   24.13003
     225      444        2     0.00000   25.58060   16.33912   13.67031
     226      444        2     0.00000   22.47067   16.34109   13.38250
     227      444        2     0.00000   21.40991   17.35760   23.76994
     228      444        2     0.00000   24.00152   16.35885   22.46231
     229      444        1     0.00000   30.15911   21.11769    9.22306
     230      444        1     0.00000   27.87488   21.20453   10.52411
     231      444        1     0.00000   28.11595   22.43421    8.21506
     232      444        1     0.00000   28.06975   19.80511    8.31363
     233      444        1     0.00000   26.69961   20.49791   12.77665
     234      444        1     0.00000   26.71367   38.59766   10.71730
     235      444        1     0.00000   25.25514   21.04663   10.65291
     236      444        1     0.00000   25.93619   22.29604    1.39305
     237      444        1     0.00000   24.17631   20.63608    0.36140
     238      444        1     0.00000   25.98842   19.75774    2.05541
     239      444        1     0.00000   22.24967   22.23486    1.16044
     240      444        1     0.00000   21.78961   20.46831   12.40999
     241      444        1     0.00000   22.70371   21.27954   10.07991
     242      444        1     0.00000   21.55255   38.66477   10.29281
     243      444        1     0.00000   24.51181   22.32960    8.48448
     244      444        1     0.00000   29.95620   36.61004    9.42150
     245      444        1     0.00000   27.48513   36.14225   10.17585
     246      444        1     0.00000   28.65437   34.54150    8.45162
     247      444        1     0.00000   26.55295   36.73439   12.56507
     248      444        1     0.00000   24.93169   36.67715   10.50046
     249      444        1     0.00000   26.00249   34.54150    0.76092
     250      444        1     0.00000   24.05978   36.14620    0.00394
     251      444        1     0.00000   21.99453   34.54150    0.26941
     252      444        1     0.00000   21.71528   36.85085   12.18920
     253      444        1     0.00000   22.45459   36.25871    9.73297
     254      444        1     0.00000   24.34104   34.54150    9.08506
     255      444        2     0.00000   28.55593   21.14137    9.06535
     256      444        2     0.00000   26.63733   20.40120   11.17070
     257      444        2     0.00000   25.69913   20.79596    0.86080
     258      444        2     0.00000   22.59321   20.75253    0.63213
     259      444        2     0.00000   21.53849   20.44857   10.81981
     260      444        2     0.00000   24.17631   21.09400    9.45830
     261      444        2     0.00000   28.51776   36.06922    8.94313
     262      444        2     0.00000   26.42237   37.03836   10.98803
     263      444        2     0.00000   25.58060   36.07712    0.52831
     264      444        2     0.00000   22.47067   36.07909    0.24050
     265      444        2     0.00000   21.40991   37.09560   10.62794
     266      444        2     0.00000   24.00152   36.09685    9.32031
     267      444        1     0.00000   30.15911   21.11769   22.36506
     268      444        1     0.00000   27.87488   21.20453   23.66611
     269      444        1     0.00000   28.11595   22.43421   21.35706
     270      444        1     0.00000   28.06975   19.80511   21.45563
     271      444        1     0.00000   26.69961   20.49791   25.91865
     272      444        1     0.00000   26.71367   38.59766   23.85930
     273      444        1     0.00000   25.25514   21.04663   23.79491
     274      444        1     0.00000   25.93619   22.29604   14.53505
     275      444        1     0.00000   24.17631   20.63608   13.50340
     276      444        1     0.00000   25.98842   19.75774   15.19741
     277      444        1     0.00000   22.24967   22.23486   14.30244
     278      444        1     0.00000   21.78961   20.46831   25.55199
     279      444        1     0.00000   22.70371   21.27954   23.22191
     280      444        1     0.00000   21.55255   38.66477   23.43481
     281      444        1     0.00000   24.51181   22.32960   21.62648
     282      444        1     0.00000   29.95620   36.61004   22.56350
     283      444        1     0.00000   27.48513   36.14225   23.31785
     284      444        1     0.00000   28.65437   34.54150   21.59362
     285      444        1     0.00000   26.55295   36.73439   25.70707
     286      444        1     0.00000   24.93169   36.67715   23.64246
     287      444        1     0.00000   26.00249   34.54150   13.90292
     288      444        1     0.00000   24.05978   36.14620   13.14594
     289      444        1     0.00000   21.99453   34.54150   13.41141
     290      444        1     0.00000   21.71528   36.85085   25.33120
     291      444        1     0.00000   22.45459   36.25871   22.87497
     292      444        1     0.00000   24.34104   34.54150   22.22706
     293      444        2     0.00000   28.55593   21.14137   22.20735
     294      444        2     0.00000   26.63733   20.40120   24.31270
     295      444        2     0.00000   25.69913   20.79596   14.00280
     296      444        2     0.00000   22.59321   20.75253   13.77413
     297      444        2     0.00000   21.53849   20.44857   23.96181
     298      444        2     0.00000   24.17631   21.09400   22.60030
     299      444        2     0.00000   28.51776   36.06922   22.08513
     300      444        2     0.00000   26.42237   37.03836   24.13003
     301      444        2     0.00000   25.58060   36.07712   13.67031
     302      444        2     0.00000   22.47067   36.07909   13.38250
     303      444        2     0.00000   21.40991   37.09560   23.76994
     304      444        2     0.00000   24.00152   36.09685   22.46231
