LAMMPS data file via write_data, version 8 Apr 2021, timestep = 1000000

320 atoms
3 atom types

0 40.18 xlo xhi
0 39.476 ylo yhi
0 26.284 zlo zhi
0 0 0 xy xz yz

Masses

1 15.9994
2 28.0855
3 16.04

Pair Coeffs # lj/cut

1 0.06 3.11815
2 0.402 3.82641
3 0.294106 3.73

Atoms # full

1 444 1 0 10.06911 1.3796899999999999 9.22306 0 0 0
2 444 1 0 7.784880000000001 1.46653 10.52411 0 0 0
3 444 1 0 8.02595 2.69621 8.21506 0 0 0
4 444 1 0 7.979750000000002 0.06711 8.31363 0 0 0
5 444 1 0 6.60961 0.75991 12.77665 0 0 0
6 444 1 0 6.62367 18.85966 10.7173 0 0 0
7 444 1 0 5.16514 1.30863 10.65291 0 0 0
8 444 1 0 5.84619 2.5580399999999996 1.39305 0 0 0
9 444 1 0 4.08631 0.8980799999999999 0.3614 0 0 0
10 444 1 0 5.89842 0.019739999999999994 2.05541 0 0 0
11 444 1 0 2.15968 2.4968599999999994 1.16044 0 0 0
12 444 1 0 1.69961 0.7303099999999999 12.40999 0 0 0
13 444 1 0 2.61371 1.5415399999999997 10.07991 0 0 0
14 444 1 0 1.4625500000000002 18.92677 10.29281 0 0 0
15 444 1 0 4.42181 2.5916 8.48448 0 0 0
16 444 1 0 9.8662 16.87204 9.4215 0 0 0
17 444 1 0 7.39513 16.40425 10.17585 0 0 0
18 444 1 0 8.56437 14.8035 8.45162 0 0 0
19 444 1 0 6.462950000000001 16.99639 12.56507 0 0 0
20 444 1 0 4.84169 16.93915 10.50046 0 0 0
21 444 1 0 5.91249 14.8035 0.76092 0 0 0
22 444 1 0 3.96978 16.4082 0.00394 0 0 0
23 444 1 0 1.90453 14.8035 0.26941 0 0 0
24 444 1 0 1.6252800000000003 17.11285 12.1892 0 0 0
25 444 1 0 2.36459 16.52071 9.73297 0 0 0
26 444 1 0 4.25104 14.8035 9.08506 0 0 0
27 444 2 0 8.46593 1.4033699999999996 9.06535 0 0 0
28 444 2 0 6.54733 0.6631999999999998 11.1707 0 0 0
29 444 2 0 5.60913 1.05796 0.8607999999999999 0 0 0
30 444 2 0 2.50321 1.01453 0.63213 0 0 0
31 444 2 0 1.44849 0.71057 10.81981 0 0 0
32 444 2 0 4.08631 1.3559999999999999 9.4583 0 0 0
33 444 2 0 8.42776 16.33122 8.94313 0 0 0
34 444 2 0 6.33237 17.30036 10.98803 0 0 0
35 444 2 0 5.4906 16.33912 0.52831 0 0 0
36 444 2 0 2.38067 16.341089999999998 0.2405 0 0 0
37 444 2 0 1.31991 17.3576 10.62794 0 0 0
38 444 2 0 3.9115200000000003 16.35885 9.32031 0 0 0
39 444 1 0 10.06911 1.3796899999999999 22.36506 0 0 0
40 444 1 0 7.784880000000001 1.46653 23.66611 0 0 0
41 444 1 0 8.02595 2.69621 21.35706 0 0 0
42 444 1 0 7.979750000000002 0.06711 21.45563 0 0 0
43 444 1 0 6.60961 0.75991 25.91865 0 0 0
44 444 1 0 6.62367 18.85966 23.8593 0 0 0
45 444 1 0 5.16514 1.30863 23.79491 0 0 0
46 444 1 0 5.84619 2.5580399999999996 14.535049999999998 0 0 0
47 444 1 0 4.08631 0.8980799999999999 13.503399999999997 0 0 0
48 444 1 0 5.89842 0.019739999999999994 15.197410000000001 0 0 0
49 444 1 0 2.15968 2.4968599999999994 14.30244 0 0 0
50 444 1 0 1.69961 0.7303099999999999 25.55199 0 0 0
51 444 1 0 2.61371 1.5415399999999997 23.22191 0 0 0
52 444 1 0 1.4625500000000002 18.92677 23.43481 0 0 0
53 444 1 0 4.42181 2.5916 21.62648 0 0 0
54 444 1 0 9.8662 16.87204 22.5635 0 0 0
55 444 1 0 7.39513 16.40425 23.31785 0 0 0
56 444 1 0 8.56437 14.8035 21.59362 0 0 0
57 444 1 0 6.462950000000001 16.99639 25.70707 0 0 0
58 444 1 0 4.84169 16.93915 23.64246 0 0 0
59 444 1 0 5.91249 14.8035 13.90292 0 0 0
60 444 1 0 3.96978 16.4082 13.14594 0 0 0
61 444 1 0 1.90453 14.8035 13.41141 0 0 0
62 444 1 0 1.6252800000000003 17.11285 25.3312 0 0 0
63 444 1 0 2.36459 16.52071 22.87497 0 0 0
64 444 1 0 4.25104 14.8035 22.22706 0 0 0
65 444 2 0 8.46593 1.4033699999999996 22.20735 0 0 0
66 444 2 0 6.54733 0.6631999999999998 24.3127 0 0 0
67 444 2 0 5.60913 1.05796 14.002800000000002 0 0 0
68 444 2 0 2.50321 1.01453 13.77413 0 0 0
69 444 2 0 1.44849 0.71057 23.96181 0 0 0
70 444 2 0 4.08631 1.3559999999999999 22.6003 0 0 0
71 444 2 0 8.42776 16.33122 22.08513 0 0 0
72 444 2 0 6.33237 17.30036 24.13003 0 0 0
73 444 2 0 5.4906 16.33912 13.670310000000002 0 0 0
74 444 2 0 2.38067 16.341089999999998 13.3825 0 0 0
75 444 2 0 1.31991 17.3576 23.76994 0 0 0
76 444 2 0 3.9115200000000003 16.35885 22.46231 0 0 0
319 459 3 0 3.976200461598833 16.65731556335924 17.560662526118584 1 -1 0
313 453 3 0 14.36679877029831 18.022792613924576 25.263144369742353 1 -1 -3
77 444 1 0 10.06911 21.117689999999993 9.22306 0 0 0
78 444 1 0 7.784880000000001 21.20453 10.52411 0 0 0
79 444 1 0 8.02596 22.434209999999997 8.21506 0 0 0
80 444 1 0 7.979750000000002 19.805109999999996 8.31363 0 0 0
81 444 1 0 6.60961 20.497909999999997 12.77665 0 0 0
82 444 1 0 6.62367 38.59766 10.7173 0 0 0
83 444 1 0 5.16514 21.04663 10.65291 0 0 0
84 444 1 0 5.84619 22.296039999999998 1.39305 0 0 0
85 444 1 0 4.08631 20.63608 0.3614 0 0 0
86 444 1 0 5.89842 19.757739999999995 2.05541 0 0 0
87 444 1 0 2.15968 22.234859999999998 1.16044 0 0 0
88 444 1 0 1.69961 20.46831 12.40999 0 0 0
89 444 1 0 2.61371 21.279539999999994 10.07991 0 0 0
90 444 1 0 1.4625500000000002 38.66477 10.29281 0 0 0
91 444 1 0 4.42181 22.3296 8.48448 0 0 0
92 444 1 0 9.8662 36.61004 9.4215 0 0 0
93 444 1 0 7.39513 36.14225 10.17585 0 0 0
94 444 1 0 8.56437 34.54149999999999 8.45162 0 0 0
95 444 1 0 6.462950000000001 36.73439 12.56507 0 0 0
96 444 1 0 4.84169 36.67714999999999 10.50046 0 0 0
97 444 1 0 5.91249 34.54149999999999 0.76092 0 0 0
98 444 1 0 3.96978 36.1462 0.00394 0 0 0
99 444 1 0 1.90453 34.54149999999999 0.26941 0 0 0
100 444 1 0 1.6252800000000003 36.85085 12.1892 0 0 0
101 444 1 0 2.36459 36.25871 9.73297 0 0 0
102 444 1 0 4.25104 34.54149999999999 9.08506 0 0 0
103 444 2 0 8.46593 21.141369999999995 9.06535 0 0 0
104 444 2 0 6.54733 20.4012 11.1707 0 0 0
105 444 2 0 5.60913 20.795959999999994 0.8607999999999999 0 0 0
106 444 2 0 2.50321 20.75253 0.63213 0 0 0
107 444 2 0 1.44849 20.44856999999999 10.81981 0 0 0
108 444 2 0 4.08631 21.094 9.4583 0 0 0
109 444 2 0 8.42776 36.06922 8.94313 0 0 0
110 444 2 0 6.33237 37.03835999999999 10.98803 0 0 0
111 444 2 0 5.4906 36.07712 0.52831 0 0 0
112 444 2 0 2.38067 36.079089999999994 0.2405 0 0 0
113 444 2 0 1.31991 37.0956 10.62794 0 0 0
114 444 2 0 3.9115200000000003 36.09685 9.32031 0 0 0
115 444 1 0 10.06911 21.117689999999993 22.36506 0 0 0
116 444 1 0 7.784880000000001 21.20453 23.66611 0 0 0
117 444 1 0 8.02596 22.434209999999997 21.35706 0 0 0
118 444 1 0 7.979750000000002 19.805109999999996 21.45563 0 0 0
119 444 1 0 6.60961 20.497909999999997 25.91865 0 0 0
120 444 1 0 6.62367 38.59766 23.8593 0 0 0
121 444 1 0 5.16514 21.04663 23.79491 0 0 0
122 444 1 0 5.84619 22.296039999999998 14.535049999999998 0 0 0
123 444 1 0 4.08631 20.63608 13.503399999999997 0 0 0
124 444 1 0 5.89842 19.757739999999995 15.197410000000001 0 0 0
125 444 1 0 2.15968 22.234859999999998 14.30244 0 0 0
126 444 1 0 1.69961 20.46831 25.55199 0 0 0
127 444 1 0 2.61371 21.279539999999994 23.22191 0 0 0
128 444 1 0 1.4625500000000002 38.66477 23.43481 0 0 0
129 444 1 0 4.42181 22.3296 21.62648 0 0 0
130 444 1 0 9.8662 36.61004 22.5635 0 0 0
131 444 1 0 7.39513 36.14225 23.31785 0 0 0
132 444 1 0 8.56437 34.54149999999999 21.59362 0 0 0
133 444 1 0 6.462950000000001 36.73439 25.70707 0 0 0
134 444 1 0 4.84169 36.67714999999999 23.64246 0 0 0
135 444 1 0 5.91249 34.54149999999999 13.90292 0 0 0
136 444 1 0 3.96978 36.1462 13.14594 0 0 0
137 444 1 0 1.90453 34.54149999999999 13.41141 0 0 0
138 444 1 0 1.6252800000000003 36.85085 25.3312 0 0 0
139 444 1 0 2.36459 36.25871 22.87497 0 0 0
140 444 1 0 4.25104 34.54149999999999 22.22706 0 0 0
141 444 2 0 8.46593 21.141369999999995 22.20735 0 0 0
142 444 2 0 6.54733 20.4012 24.3127 0 0 0
143 444 2 0 5.60913 20.795959999999994 14.002800000000002 0 0 0
144 444 2 0 2.50321 20.75253 13.77413 0 0 0
145 444 2 0 1.44849 20.44856999999999 23.96181 0 0 0
146 444 2 0 4.08631 21.094 22.6003 0 0 0
147 444 2 0 8.42776 36.06922 22.08513 0 0 0
148 444 2 0 6.33237 37.03835999999999 24.13003 0 0 0
149 444 2 0 5.4906 36.07712 13.670310000000002 0 0 0
150 444 2 0 2.38067 36.079089999999994 13.3825 0 0 0
151 444 2 0 1.31991 37.0956 23.76994 0 0 0
152 444 2 0 3.9115200000000003 36.09685 22.46231 0 0 0
315 455 3 0 5.650805100154128 37.97750731370527 5.712693176403273 2 4 -3
317 457 3 0 9.13710505924961 38.137452745293324 0.8003796528997531 1 -4 1
320 460 3 0 1.084042451299068 39.33321183814128 6.135245395663274 4 0 -4
153 444 1 0 30.15911 1.3796899999999999 9.22306 0 0 0
154 444 1 0 27.87488 1.46653 10.52411 0 0 0
155 444 1 0 28.11595 2.69621 8.21506 0 0 0
156 444 1 0 28.06975 0.06711 8.31363 0 0 0
157 444 1 0 26.69961 0.75991 12.77665 0 0 0
158 444 1 0 26.71367 18.85966 10.7173 0 0 0
159 444 1 0 25.25514 1.30863 10.65291 0 0 0
160 444 1 0 25.93619 2.5580399999999996 1.39305 0 0 0
161 444 1 0 24.17631 0.8980799999999999 0.3614 0 0 0
162 444 1 0 25.98842 0.019739999999999994 2.05541 0 0 0
163 444 1 0 22.24967 2.4968599999999994 1.16044 0 0 0
164 444 1 0 21.78961 0.7303099999999999 12.40999 0 0 0
165 444 1 0 22.70371 1.5415399999999997 10.07991 0 0 0
166 444 1 0 21.55255 18.92677 10.29281 0 0 0
167 444 1 0 24.51181 2.5916 8.48448 0 0 0
168 444 1 0 29.9562 16.87204 9.4215 0 0 0
169 444 1 0 27.48513 16.40425 10.17585 0 0 0
170 444 1 0 28.65437 14.8035 8.45162 0 0 0
171 444 1 0 26.55295 16.99639 12.56507 0 0 0
172 444 1 0 24.931690000000003 16.93915 10.50046 0 0 0
173 444 1 0 26.00249 14.8035 0.76092 0 0 0
174 444 1 0 24.05978 16.4082 0.00394 0 0 0
175 444 1 0 21.994530000000005 14.8035 0.26941 0 0 0
176 444 1 0 21.71528 17.11285 12.1892 0 0 0
177 444 1 0 22.454590000000003 16.52071 9.73297 0 0 0
178 444 1 0 24.34104 14.8035 9.08506 0 0 0
179 444 2 0 28.55593 1.4033699999999996 9.06535 0 0 0
180 444 2 0 26.637330000000002 0.6631999999999998 11.1707 0 0 0
181 444 2 0 25.699130000000004 1.05796 0.8607999999999999 0 0 0
182 444 2 0 22.59321 1.01453 0.63213 0 0 0
183 444 2 0 21.538490000000003 0.71057 10.81981 0 0 0
184 444 2 0 24.17631 1.3559999999999999 9.4583 0 0 0
185 444 2 0 28.517760000000003 16.33122 8.94313 0 0 0
186 444 2 0 26.422370000000004 17.30036 10.98803 0 0 0
187 444 2 0 25.580600000000004 16.33912 0.52831 0 0 0
188 444 2 0 22.47067 16.341089999999998 0.2405 0 0 0
189 444 2 0 21.40991 17.3576 10.62794 0 0 0
190 444 2 0 24.00152 16.35885 9.32031 0 0 0
191 444 1 0 30.15911 1.3796899999999999 22.36506 0 0 0
192 444 1 0 27.87488 1.46653 23.66611 0 0 0
193 444 1 0 28.11595 2.69621 21.35706 0 0 0
194 444 1 0 28.06975 0.06711 21.45563 0 0 0
195 444 1 0 26.69961 0.75991 25.91865 0 0 0
196 444 1 0 26.71367 18.85966 23.8593 0 0 0
197 444 1 0 25.25514 1.30863 23.79491 0 0 0
198 444 1 0 25.93619 2.5580399999999996 14.535049999999998 0 0 0
199 444 1 0 24.17631 0.8980799999999999 13.503399999999997 0 0 0
200 444 1 0 25.98842 0.019739999999999994 15.197410000000001 0 0 0
201 444 1 0 22.24967 2.4968599999999994 14.30244 0 0 0
202 444 1 0 21.78961 0.7303099999999999 25.55199 0 0 0
203 444 1 0 22.70371 1.5415399999999997 23.22191 0 0 0
204 444 1 0 21.55255 18.92677 23.43481 0 0 0
205 444 1 0 24.51181 2.5916 21.62648 0 0 0
206 444 1 0 29.9562 16.87204 22.5635 0 0 0
207 444 1 0 27.48513 16.40425 23.31785 0 0 0
208 444 1 0 28.65437 14.8035 21.59362 0 0 0
209 444 1 0 26.55295 16.99639 25.70707 0 0 0
210 444 1 0 24.931690000000003 16.93915 23.64246 0 0 0
211 444 1 0 26.00249 14.8035 13.90292 0 0 0
212 444 1 0 24.05978 16.4082 13.14594 0 0 0
213 444 1 0 21.994530000000005 14.8035 13.41141 0 0 0
214 444 1 0 21.71528 17.11285 25.3312 0 0 0
215 444 1 0 22.454590000000003 16.52071 22.87497 0 0 0
216 444 1 0 24.34104 14.8035 22.22706 0 0 0
217 444 2 0 28.55593 1.4033699999999996 22.20735 0 0 0
218 444 2 0 26.637330000000002 0.6631999999999998 24.3127 0 0 0
219 444 2 0 25.699130000000004 1.05796 14.002800000000002 0 0 0
220 444 2 0 22.59321 1.01453 13.77413 0 0 0
221 444 2 0 21.538490000000003 0.71057 23.96181 0 0 0
222 444 2 0 24.17631 1.3559999999999999 22.6003 0 0 0
223 444 2 0 28.517760000000003 16.33122 22.08513 0 0 0
224 444 2 0 26.422370000000004 17.30036 24.13003 0 0 0
225 444 2 0 25.580600000000004 16.33912 13.670310000000002 0 0 0
226 444 2 0 22.47067 16.341089999999998 13.3825 0 0 0
227 444 2 0 21.40991 17.3576 23.76994 0 0 0
228 444 2 0 24.00152 16.35885 22.46231 0 0 0
314 454 3 0 38.83318215471166 18.778363941060924 1.1869548056659691 -2 -1 -2
309 449 3 0 38.79643076913209 18.058082280923575 20.24160176155984 -1 -1 -3
305 445 3 0 32.743640199404055 7.508111067156329 10.904755814760243 -2 6 -1
316 456 3 0 33.36539921294985 0.15891541024055422 11.450183807909498 -2 -2 -10
229 444 1 0 30.15911 21.117689999999993 9.22306 0 0 0
230 444 1 0 27.87488 21.20453 10.52411 0 0 0
231 444 1 0 28.11595 22.434209999999997 8.21506 0 0 0
232 444 1 0 28.06975 19.805109999999996 8.31363 0 0 0
233 444 1 0 26.69961 20.497909999999997 12.77665 0 0 0
234 444 1 0 26.71367 38.59766 10.7173 0 0 0
235 444 1 0 25.25514 21.04663 10.65291 0 0 0
236 444 1 0 25.93619 22.296039999999998 1.39305 0 0 0
237 444 1 0 24.17631 20.63608 0.3614 0 0 0
238 444 1 0 25.98842 19.757739999999995 2.05541 0 0 0
239 444 1 0 22.24967 22.234859999999998 1.16044 0 0 0
240 444 1 0 21.78961 20.46831 12.40999 0 0 0
241 444 1 0 22.70371 21.279539999999994 10.07991 0 0 0
242 444 1 0 21.55255 38.66477 10.29281 0 0 0
243 444 1 0 24.51181 22.3296 8.48448 0 0 0
244 444 1 0 29.9562 36.61004 9.4215 0 0 0
245 444 1 0 27.48513 36.14225 10.17585 0 0 0
246 444 1 0 28.65437 34.54149999999999 8.45162 0 0 0
247 444 1 0 26.55295 36.73439 12.56507 0 0 0
248 444 1 0 24.931690000000003 36.67714999999999 10.50046 0 0 0
249 444 1 0 26.00249 34.54149999999999 0.76092 0 0 0
250 444 1 0 24.05978 36.1462 0.00394 0 0 0
251 444 1 0 21.994530000000005 34.54149999999999 0.26941 0 0 0
252 444 1 0 21.71528 36.85085 12.1892 0 0 0
253 444 1 0 22.454590000000003 36.25871 9.73297 0 0 0
254 444 1 0 24.34104 34.54149999999999 9.08506 0 0 0
255 444 2 0 28.55593 21.141369999999995 9.06535 0 0 0
256 444 2 0 26.637330000000002 20.4012 11.1707 0 0 0
257 444 2 0 25.699130000000004 20.795959999999994 0.8607999999999999 0 0 0
258 444 2 0 22.59321 20.75253 0.63213 0 0 0
259 444 2 0 21.538490000000003 20.44856999999999 10.81981 0 0 0
260 444 2 0 24.17631 21.094 9.4583 0 0 0
261 444 2 0 28.517760000000003 36.06922 8.94313 0 0 0
262 444 2 0 26.422370000000004 37.03835999999999 10.98803 0 0 0
263 444 2 0 25.580600000000004 36.07712 0.52831 0 0 0
264 444 2 0 22.47067 36.079089999999994 0.2405 0 0 0
265 444 2 0 21.40991 37.0956 10.62794 0 0 0
266 444 2 0 24.00152 36.09685 9.32031 0 0 0
267 444 1 0 30.15911 21.117689999999993 22.36506 0 0 0
268 444 1 0 27.87488 21.20453 23.66611 0 0 0
269 444 1 0 28.11595 22.434209999999997 21.35706 0 0 0
270 444 1 0 28.06975 19.805109999999996 21.45563 0 0 0
271 444 1 0 26.69961 20.497909999999997 25.91865 0 0 0
272 444 1 0 26.71367 38.59766 23.8593 0 0 0
273 444 1 0 25.25514 21.04663 23.79491 0 0 0
274 444 1 0 25.93619 22.296039999999998 14.535049999999998 0 0 0
275 444 1 0 24.17631 20.63608 13.503399999999997 0 0 0
276 444 1 0 25.98842 19.757739999999995 15.197410000000001 0 0 0
277 444 1 0 22.24967 22.234859999999998 14.30244 0 0 0
278 444 1 0 21.78961 20.46831 25.55199 0 0 0
279 444 1 0 22.70371 21.279539999999994 23.22191 0 0 0
280 444 1 0 21.55255 38.66477 23.43481 0 0 0
281 444 1 0 24.51181 22.3296 21.62648 0 0 0
282 444 1 0 29.9562 36.61004 22.5635 0 0 0
283 444 1 0 27.48513 36.14225 23.31785 0 0 0
284 444 1 0 28.65437 34.54149999999999 21.59362 0 0 0
285 444 1 0 26.55295 36.73439 25.70707 0 0 0
286 444 1 0 24.931690000000003 36.67714999999999 23.64246 0 0 0
287 444 1 0 26.00249 34.54149999999999 13.90292 0 0 0
288 444 1 0 24.05978 36.1462 13.14594 0 0 0
289 444 1 0 21.994530000000005 34.54149999999999 13.41141 0 0 0
290 444 1 0 21.71528 36.85085 25.3312 0 0 0
291 444 1 0 22.454590000000003 36.25871 22.87497 0 0 0
292 444 1 0 24.34104 34.54149999999999 22.22706 0 0 0
293 444 2 0 28.55593 21.141369999999995 22.20735 0 0 0
294 444 2 0 26.637330000000002 20.4012 24.3127 0 0 0
295 444 2 0 25.699130000000004 20.795959999999994 14.002800000000002 0 0 0
296 444 2 0 22.59321 20.75253 13.77413 0 0 0
297 444 2 0 21.538490000000003 20.44856999999999 23.96181 0 0 0
298 444 2 0 24.17631 21.094 22.6003 0 0 0
299 444 2 0 28.517760000000003 36.06922 22.08513 0 0 0
300 444 2 0 26.422370000000004 37.03835999999999 24.13003 0 0 0
301 444 2 0 25.580600000000004 36.07712 13.670310000000002 0 0 0
302 444 2 0 22.47067 36.079089999999994 13.3825 0 0 0
303 444 2 0 21.40991 37.0956 23.76994 0 0 0
304 444 2 0 24.00152 36.09685 22.46231 0 0 0
311 451 3 0 29.979202239589657 35.447915638303265 12.75572326390215 2 2 -3
306 446 3 0 20.133902676501673 36.272550369251896 5.697820890086266 -3 -2 -6
308 448 3 0 33.800661045772856 32.619313009640834 20.24285791233491 0 1 1
310 450 3 0 29.75670609010376 20.182518776252227 17.450069550498903 1 6 -3
307 447 3 0 29.33633426816432 23.01489581474174 4.000528908995402 3 4 5
312 452 3 0 39.71155599933547 21.958659146320503 7.290876977264258 -7 -1 3
318 458 3 0 22.775405240736546 38.07084302416607 17.01428683020604 -4 0 -6

Velocities

1 0 0 0
2 0 0 0
3 0 0 0
4 0 0 0
5 0 0 0
6 0 0 0
7 0 0 0
8 0 0 0
9 0 0 0
10 0 0 0
11 0 0 0
12 0 0 0
13 0 0 0
14 0 0 0
15 0 0 0
16 0 0 0
17 0 0 0
18 0 0 0
19 0 0 0
20 0 0 0
21 0 0 0
22 0 0 0
23 0 0 0
24 0 0 0
25 0 0 0
26 0 0 0
27 0 0 0
28 0 0 0
29 0 0 0
30 0 0 0
31 0 0 0
32 0 0 0
33 0 0 0
34 0 0 0
35 0 0 0
36 0 0 0
37 0 0 0
38 0 0 0
39 0 0 0
40 0 0 0
41 0 0 0
42 0 0 0
43 0 0 0
44 0 0 0
45 0 0 0
46 0 0 0
47 0 0 0
48 0 0 0
49 0 0 0
50 0 0 0
51 0 0 0
52 0 0 0
53 0 0 0
54 0 0 0
55 0 0 0
56 0 0 0
57 0 0 0
58 0 0 0
59 0 0 0
60 0 0 0
61 0 0 0
62 0 0 0
63 0 0 0
64 0 0 0
65 0 0 0
66 0 0 0
67 0 0 0
68 0 0 0
69 0 0 0
70 0 0 0
71 0 0 0
72 0 0 0
73 0 0 0
74 0 0 0
75 0 0 0
76 0 0 0
319 -0.0004904852418291814 -0.003759655080114571 0.0009219224447499744
313 0.004092418409008403 -0.0018209617134055088 0.0021695017655498387
77 0 0 0
78 0 0 0
79 0 0 0
80 0 0 0
81 0 0 0
82 0 0 0
83 0 0 0
84 0 0 0
85 0 0 0
86 0 0 0
87 0 0 0
88 0 0 0
89 0 0 0
90 0 0 0
91 0 0 0
92 0 0 0
93 0 0 0
94 0 0 0
95 0 0 0
96 0 0 0
97 0 0 0
98 0 0 0
99 0 0 0
100 0 0 0
101 0 0 0
102 0 0 0
103 0 0 0
104 0 0 0
105 0 0 0
106 0 0 0
107 0 0 0
108 0 0 0
109 0 0 0
110 0 0 0
111 0 0 0
112 0 0 0
113 0 0 0
114 0 0 0
115 0 0 0
116 0 0 0
117 0 0 0
118 0 0 0
119 0 0 0
120 0 0 0
121 0 0 0
122 0 0 0
123 0 0 0
124 0 0 0
125 0 0 0
126 0 0 0
127 0 0 0
128 0 0 0
129 0 0 0
130 0 0 0
131 0 0 0
132 0 0 0
133 0 0 0
134 0 0 0
135 0 0 0
136 0 0 0
137 0 0 0
138 0 0 0
139 0 0 0
140 0 0 0
141 0 0 0
142 0 0 0
143 0 0 0
144 0 0 0
145 0 0 0
146 0 0 0
147 0 0 0
148 0 0 0
149 0 0 0
150 0 0 0
151 0 0 0
152 0 0 0
315 -0.003088429558642403 -0.002735083829281199 0.00012069765945870954
317 0.00023456970020053426 0.001023039292510391 9.041969132374856e-05
320 -0.0016937248469599234 0.0036523236045624408 -0.0004415043186145483
153 0 0 0
154 0 0 0
155 0 0 0
156 0 0 0
157 0 0 0
158 0 0 0
159 0 0 0
160 0 0 0
161 0 0 0
162 0 0 0
163 0 0 0
164 0 0 0
165 0 0 0
166 0 0 0
167 0 0 0
168 0 0 0
169 0 0 0
170 0 0 0
171 0 0 0
172 0 0 0
173 0 0 0
174 0 0 0
175 0 0 0
176 0 0 0
177 0 0 0
178 0 0 0
179 0 0 0
180 0 0 0
181 0 0 0
182 0 0 0
183 0 0 0
184 0 0 0
185 0 0 0
186 0 0 0
187 0 0 0
188 0 0 0
189 0 0 0
190 0 0 0
191 0 0 0
192 0 0 0
193 0 0 0
194 0 0 0
195 0 0 0
196 0 0 0
197 0 0 0
198 0 0 0
199 0 0 0
200 0 0 0
201 0 0 0
202 0 0 0
203 0 0 0
204 0 0 0
205 0 0 0
206 0 0 0
207 0 0 0
208 0 0 0
209 0 0 0
210 0 0 0
211 0 0 0
212 0 0 0
213 0 0 0
214 0 0 0
215 0 0 0
216 0 0 0
217 0 0 0
218 0 0 0
219 0 0 0
220 0 0 0
221 0 0 0
222 0 0 0
223 0 0 0
224 0 0 0
225 0 0 0
226 0 0 0
227 0 0 0
228 0 0 0
314 -0.0013893736453679227 0.005828071868598772 0.006918823022493697
309 -0.0015018647339340922 -0.0008789265665370669 0.0008525653751213233
305 -4.671336280651527e-05 0.0006341626544746464 0.0051309869550773555
316 0.004132974900396974 0.005314032590206071 0.0020332647347676464
229 0 0 0
230 0 0 0
231 0 0 0
232 0 0 0
233 0 0 0
234 0 0 0
235 0 0 0
236 0 0 0
237 0 0 0
238 0 0 0
239 0 0 0
240 0 0 0
241 0 0 0
242 0 0 0
243 0 0 0
244 0 0 0
245 0 0 0
246 0 0 0
247 0 0 0
248 0 0 0
249 0 0 0
250 0 0 0
251 0 0 0
252 0 0 0
253 0 0 0
254 0 0 0
255 0 0 0
256 0 0 0
257 0 0 0
258 0 0 0
259 0 0 0
260 0 0 0
261 0 0 0
262 0 0 0
263 0 0 0
264 0 0 0
265 0 0 0
266 0 0 0
267 0 0 0
268 0 0 0
269 0 0 0
270 0 0 0
271 0 0 0
272 0 0 0
273 0 0 0
274 0 0 0
275 0 0 0
276 0 0 0
277 0 0 0
278 0 0 0
279 0 0 0
280 0 0 0
281 0 0 0
282 0 0 0
283 0 0 0
284 0 0 0
285 0 0 0
286 0 0 0
287 0 0 0
288 0 0 0
289 0 0 0
290 0 0 0
291 0 0 0
292 0 0 0
293 0 0 0
294 0 0 0
295 0 0 0
296 0 0 0
297 0 0 0
298 0 0 0
299 0 0 0
300 0 0 0
301 0 0 0
302 0 0 0
303 0 0 0
304 0 0 0
311 -0.0015569020734060275 0.0022350653174588835 -0.0013279228454162095
306 -0.006916053532972103 0.011074732905430908 -0.004072154498285134
308 -0.006338781033324272 0.00721275758199451 -0.007664078265238865
310 0.009870210828784143 -0.009092288972225825 -0.006631239308122011
307 0.0007952216499648733 -0.0003384694127552539 -0.0012471201546697605
312 -0.004276172802384706 -0.001845531424153165 -0.0029404257499941362
318 -0.0023396473962680564 -0.005389197768658151 -0.002970222229441205
