LAMMPS data file. CGCMM style. atom_style full generated by VMD/TopoTools v1.8 on Fri Jul 02 21:08:39 CEST 2021
 1380 atoms
 0 bonds
 0 angles
 0 dihedrals
 0 impropers
 10 atom types
 0 bond types
 0 angle types
 0 dihedral types
 0 improper types
 0.444700 26.558700  xlo xhi
 0.314250 45.544250  ylo yhi
 -0.401771 27.265229  zlo zhi

# Pair Coeffs
#
# 1  CH4
# 2  Ca
# 3  Cb
# 4  Cc
# 5  Cd
# 6  H
# 7  Mg
# 8  Oa
# 9  Ob
# 10  Oc

 Masses

 1 16.040001 # CH4
 2 12.011000 # Ca
 3 12.011000 # Cb
 4 12.011000 # Cc
 5 12.011000 # Cd
 6 1.008000 # H
 7 24.305000 # Mg
 8 15.999000 # Oa
 9 15.999000 # Ob
 10 15.999000 # Oc

 Atoms # full

1 1 1 0.000000 2.0 44.0 1.0 # CH4
2 2 1 0.000000 2.0 30.0 1.0 # CH4
3 3 1 0.000000 2.0 15.0 1.0 # CH4
4 4 1 0.000000 13.0 37.0 1.0 # CH4
5 5 1 0.000000 13.0 22.0 1.0 # CH4
6 6 1 0.000000 13.0 7.0 1.0 # CH4
7 7 1 0.000000 2.0 44.0 2.0 # CH4
8 8 1 0.000000 2.0 30.0 2.0 # CH4
9 9 1 0.000000 2.0 15.0 2.0 # CH4
10 10 1 0.000000 13.0 37.0 2.0 # CH4
11 11 1 0.000000 13.0 22.0 2.0 # CH4
12 12 1 0.000000 13.0 7.0 2.0 # CH4
13 13 1 0.000000 2.0 44.0 3.0 # CH4
14 14 1 0.000000 2.0 30.0 3.0 # CH4
15 15 1 0.000000 2.0 15.0 3.0 # CH4
16 16 1 0.000000 13.0 37.0 3.0 # CH4
17 17 1 0.000000 13.0 22.0 3.0 # CH4
18 18 1 0.000000 13.0 7.0 3.0 # CH4
19 19 1 0.000000 2.0 44.0 4.0 # CH4
20 20 1 0.000000 2.0 30.0 4.0 # CH4
21 21 1 0.000000 2.0 15.0 4.0 # CH4
22 22 1 0.000000 13.0 37.0 4.0 # CH4
23 23 1 0.000000 13.0 22.0 4.0 # CH4
24 24 1 0.000000 13.0 7.0 4.0 # CH4
25 25 1 0.000000 2.0 44.0 5.0 # CH4
26 26 1 0.000000 2.0 30.0 5.0 # CH4
27 27 1 0.000000 2.0 15.0 5.0 # CH4
28 28 1 0.000000 13.0 37.0 5.0 # CH4
29 29 1 0.000000 13.0 22.0 5.0 # CH4
30 30 1 0.000000 13.0 7.0 5.0 # CH4
31 31 1 0.000000 2.0 44.0 6.0 # CH4
32 32 1 0.000000 2.0 30.0 6.0 # CH4
33 33 1 0.000000 2.0 15.0 6.0 # CH4
34 34 1 0.000000 13.0 37.0 6.0 # CH4
35 35 1 0.000000 13.0 22.0 6.0 # CH4
36 36 1 0.000000 13.0 7.0 6.0 # CH4
37 37 1 0.000000 2.0 44.0 7.0 # CH4
38 38 1 0.000000 2.0 30.0 7.0 # CH4
39 39 1 0.000000 2.0 15.0 7.0 # CH4
40 40 1 0.000000 13.0 37.0 7.0 # CH4
41 41 1 0.000000 13.0 22.0 7.0 # CH4
42 42 1 0.000000 13.0 7.0 7.0 # CH4
43 43 1 0.000000 2.0 44.0 8.0 # CH4
44 44 1 0.000000 2.0 30.0 8.0 # CH4
45 45 1 0.000000 2.0 15.0 8.0 # CH4
46 46 1 0.000000 13.0 37.0 8.0 # CH4
47 47 1 0.000000 13.0 22.0 8.0 # CH4
48 48 1 0.000000 13.0 7.0 8.0 # CH4
49 49 1 0.000000 2.0 44.0 9.0 # CH4
50 50 1 0.000000 2.0 30.0 9.0 # CH4
51 51 1 0.000000 2.0 15.0 9.0 # CH4
52 52 1 0.000000 13.0 37.0 9.0 # CH4
53 53 1 0.000000 13.0 22.0 9.0 # CH4
54 54 1 0.000000 13.0 7.0 9.0 # CH4
55 55 1 0.000000 2.0 44.0 10.0 # CH4
56 56 1 0.000000 2.0 30.0 10.0 # CH4
57 57 1 0.000000 2.0 15.0 10.0 # CH4
58 58 1 0.000000 13.0 37.0 10.0 # CH4
59 59 1 0.000000 13.0 22.0 10.0 # CH4
60 60 1 0.000000 13.0 7.0 10.0 # CH4
61 61 1 0.000000 2.0 44.0 11.0 # CH4
62 62 1 0.000000 2.0 30.0 11.0 # CH4
63 63 1 0.000000 2.0 15.0 11.0 # CH4
64 64 1 0.000000 13.0 37.0 11.0 # CH4
65 65 1 0.000000 13.0 22.0 11.0 # CH4
66 66 1 0.000000 13.0 7.0 11.0 # CH4
67 67 1 0.000000 2.0 44.0 12.0 # CH4
68 68 1 0.000000 2.0 30.0 12.0 # CH4
69 69 1 0.000000 2.0 15.0 12.0 # CH4
70 70 1 0.000000 13.0 37.0 12.0 # CH4
71 71 1 0.000000 13.0 22.0 12.0 # CH4
72 72 1 0.000000 13.0 7.0 12.0 # CH4
73 73 1 0.000000 2.0 44.0 13.0 # CH4
74 74 1 0.000000 2.0 30.0 13.0 # CH4
75 75 1 0.000000 2.0 15.0 13.0 # CH4
76 76 1 0.000000 13.0 37.0 13.0 # CH4
77 77 1 0.000000 13.0 22.0 13.0 # CH4
78 78 1 0.000000 13.0 7.0 13.0 # CH4
79 79 1 0.000000 2.0 44.0 14.0 # CH4
80 80 1 0.000000 2.0 30.0 14.0 # CH4
81 81 1 0.000000 2.0 15.0 14.0 # CH4
82 82 1 0.000000 13.0 37.0 14.0 # CH4
83 83 1 0.000000 13.0 22.0 14.0 # CH4
84 84 1 0.000000 13.0 7.0 14.0 # CH4
85 1 7 0.000000 5.314000 7.966000 21.684460 # Mg LIG
86 2 7 0.000000 18.371000 30.580999 21.684460 # Mg LIG
87 3 7 0.000000 4.242000 6.491000 19.378460 # Mg LIG
88 4 7 0.000000 17.299000 29.106001 19.378460 # Mg LIG
89 1 7 0.000000 3.501000 8.158000 23.990459 # Mg LIG
90 2 7 0.000000 16.558001 30.773001 23.990459 # Mg LIG
91 5 7 0.000000 7.743000 14.649000 19.815460 # Mg LIG
92 6 7 0.000000 20.799000 37.264000 19.815460 # Mg LIG
93 7 7 0.000000 8.815000 16.124001 22.120461 # Mg LIG
94 8 7 0.000000 21.872000 38.738998 22.120461 # Mg LIG
95 3 7 0.000000 9.556000 14.457000 17.509460 # Mg LIG
96 4 7 0.000000 22.613001 37.071999 17.509460 # Mg LIG
97 9 7 0.000000 8.815000 31.200001 19.815460 # Mg LIG
98 10 7 0.000000 21.872000 8.585000 19.815460 # Mg LIG
99 11 7 0.000000 9.556000 29.534000 22.120461 # Mg LIG
100 12 7 0.000000 22.613001 6.919000 22.120461 # Mg LIG
101 5 7 0.000000 4.242000 21.568001 23.990459 # Mg LIG
102 13 7 0.000000 17.299000 44.182999 23.990459 # Mg LIG
103 14 7 0.000000 8.815000 1.047000 17.509460 # Mg LIG
104 8 7 0.000000 21.872000 23.662001 17.509460 # Mg LIG
105 9 7 0.000000 5.314000 38.118999 23.990459 # Mg LIG
106 10 7 0.000000 18.371000 15.504000 23.990459 # Mg LIG
107 15 7 0.000000 7.743000 44.801998 22.120461 # Mg LIG
108 16 7 0.000000 20.799000 22.187000 22.120461 # Mg LIG
109 17 7 0.000000 9.556000 44.611000 19.815460 # Mg LIG
110 18 7 0.000000 22.613001 21.996000 19.815460 # Mg LIG
111 19 7 0.000000 3.501000 38.311001 19.378460 # Mg LIG
112 20 7 0.000000 16.558001 15.696000 19.378460 # Mg LIG
113 21 7 0.000000 4.242000 36.645000 21.684460 # Mg LIG
114 22 7 0.000000 17.299000 14.030000 21.684460 # Mg LIG
115 23 7 0.000000 5.314000 23.042999 19.378460 # Mg LIG
116 24 7 0.000000 18.371000 0.428000 19.378460 # Mg LIG
117 25 7 0.000000 3.501000 23.233999 21.684460 # Mg LIG
118 26 7 0.000000 16.558001 0.619000 21.684460 # Mg LIG
119 13 7 0.000000 7.743000 29.726000 17.509460 # Mg LIG
120 14 7 0.000000 20.799000 7.111000 17.509460 # Mg LIG
121 3 2 0.000000 5.704000 9.170000 19.055460 # Ca LIG
122 4 2 0.000000 18.761000 31.785000 19.055460 # Ca LIG
123 27 3 0.000000 6.098000 10.247000 18.115459 # Cb LIG
124 28 3 0.000000 19.155001 32.862000 18.115459 # Cb LIG
125 27 5 0.000000 6.932000 11.258000 18.610460 # Cd LIG
126 28 5 0.000000 19.989000 33.873001 18.610460 # Cd LIG
127 27 6 0.000000 7.248000 11.206000 19.650459 # H LIG
128 28 6 0.000000 20.305000 33.820999 19.650459 # H LIG
129 3 9 0.000000 6.149000 9.140000 20.245461 # Ob LIG
130 4 9 0.000000 19.205999 31.754999 20.245461 # Ob LIG
131 3 8 0.000000 4.881000 8.269000 18.627460 # Oa LIG
132 4 8 0.000000 17.938000 30.884001 18.627460 # Oa LIG
133 27 10 0.000000 8.183000 13.257000 18.410460 # Oc LIG
134 28 10 0.000000 21.240000 35.872002 18.410460 # Oc LIG
135 1 8 0.000000 4.721000 6.715000 23.238461 # Oa LIG
136 2 8 0.000000 17.777000 29.330000 23.238461 # Oa LIG
137 1 8 0.000000 3.455000 7.631000 20.933460 # Oa LIG
138 2 8 0.000000 16.511000 30.246000 20.933460 # Oa LIG
139 29 10 0.000000 4.874000 9.358000 23.088459 # Oc LIG
140 30 10 0.000000 17.930000 31.973000 23.088459 # Oc LIG
141 31 10 0.000000 5.668000 6.177000 20.783461 # Oc LIG
142 32 10 0.000000 18.725000 28.792000 20.783461 # Oc LIG
143 29 4 0.000000 5.672000 10.284000 23.664459 # Cc LIG
144 30 4 0.000000 18.729000 32.898998 23.664459 # Cc LIG
145 7 2 0.000000 7.353000 13.445000 22.444460 # Ca LIG
146 8 2 0.000000 20.409000 36.060001 22.444460 # Ca LIG
147 29 3 0.000000 6.959000 12.368000 23.384460 # Cb LIG
148 30 3 0.000000 20.016001 34.983002 23.384460 # Cb LIG
149 27 4 0.000000 7.384000 12.331000 17.835461 # Cc LIG
150 28 4 0.000000 20.441000 34.945999 17.835461 # Cc LIG
151 29 5 0.000000 6.125000 11.357000 22.889460 # Cd LIG
152 30 5 0.000000 19.181000 33.972000 22.889460 # Cd LIG
153 29 6 0.000000 5.809000 11.409000 21.849461 # H LIG
154 30 6 0.000000 18.865999 34.023998 21.849461 # H LIG
155 7 9 0.000000 6.908000 13.475000 21.254459 # Ob LIG
156 8 9 0.000000 19.965000 36.090000 21.254459 # Ob LIG
157 7 8 0.000000 8.175000 14.346000 22.871460 # Oa LIG
158 8 8 0.000000 21.232000 36.960999 22.871460 # Oa LIG
159 3 8 0.000000 8.336000 15.900000 18.260460 # Oa LIG
160 4 8 0.000000 21.393000 38.514999 18.260460 # Oa LIG
161 5 8 0.000000 9.602000 14.984000 20.566460 # Oa LIG
162 6 8 0.000000 22.659000 37.598999 20.566460 # Oa LIG
163 32 10 0.000000 7.389000 16.438000 20.716461 # Oc LIG
164 32 10 0.000000 20.445999 39.053001 20.716461 # Oc LIG
165 13 8 0.000000 9.602000 30.059999 18.260460 # Oa LIG
166 14 8 0.000000 22.659000 7.445000 18.260460 # Oa LIG
167 11 8 0.000000 8.336000 30.976999 22.871460 # Oa LIG
168 12 8 0.000000 21.393000 8.362000 22.871460 # Oa LIG
169 25 8 0.000000 4.721000 21.791000 20.933460 # Oa LIG
170 32 8 0.000000 17.777000 44.405998 20.933460 # Oa LIG
171 32 10 0.000000 5.668000 21.254000 18.477459 # Oc LIG
172 32 10 0.000000 18.725000 43.868999 18.477459 # Oc LIG
173 32 8 0.000000 8.336000 0.824000 20.566460 # Oa LIG
174 18 8 0.000000 21.393000 23.438999 20.566460 # Oa LIG
175 32 10 0.000000 7.389000 1.361000 23.021460 # Oc LIG
176 32 10 0.000000 20.445999 23.976000 23.021460 # Oc LIG
177 32 10 0.000000 4.874000 39.512001 18.477459 # Oc LIG
178 32 10 0.000000 17.930000 16.896999 18.477459 # Oc LIG
179 21 2 0.000000 5.704000 39.324001 21.360460 # Ca LIG
180 22 2 0.000000 18.761000 16.709000 21.360460 # Ca LIG
181 32 3 0.000000 6.098000 40.401001 20.421459 # Cb LIG
182 32 3 0.000000 19.155001 17.785999 20.421459 # Cb LIG
183 32 4 0.000000 5.672000 40.438000 19.053459 # Cc LIG
184 32 4 0.000000 18.729000 17.823000 19.053459 # Cc LIG
185 32 5 0.000000 6.932000 41.410999 20.916460 # Cd LIG
186 32 5 0.000000 19.989000 18.796000 20.916460 # Cd LIG
187 32 6 0.000000 7.248000 41.359001 21.955460 # H LIG
188 32 6 0.000000 20.305000 18.743999 21.955460 # H LIG
189 21 9 0.000000 6.149000 39.292999 22.550461 # Ob LIG
190 22 9 0.000000 19.205999 16.677999 22.550461 # Ob LIG
191 21 8 0.000000 4.882000 38.423000 20.933460 # Oa LIG
192 22 8 0.000000 17.938000 15.808000 20.933460 # Oa LIG
193 32 3 0.000000 6.959000 42.521000 18.773460 # Cb LIG
194 32 3 0.000000 20.016001 19.906000 18.773460 # Cb LIG
195 32 4 0.000000 7.384000 42.484001 20.140461 # Cc LIG
196 32 4 0.000000 20.441000 19.868999 20.140461 # Cc LIG
197 32 5 0.000000 6.125000 41.509998 18.277460 # Cd LIG
198 32 5 0.000000 19.181000 18.895000 18.277460 # Cd LIG
199 32 8 0.000000 8.175000 44.499001 18.260460 # Oa LIG
200 8 8 0.000000 21.232000 21.884001 18.260460 # Oa LIG
201 32 10 0.000000 8.183000 43.410000 20.716461 # Oc LIG
202 32 10 0.000000 21.240000 20.795000 20.716461 # Oc LIG
203 32 10 0.000000 5.668000 36.330002 23.088459 # Oc LIG
204 32 10 0.000000 18.725000 13.715000 23.088459 # Oc LIG
205 32 2 0.000000 7.353000 43.598000 17.833460 # Ca LIG
206 8 2 0.000000 20.409000 20.983000 17.833460 # Ca LIG
207 33 9 0.000000 6.908000 43.627998 23.559460 # Ob LIG
208 34 9 0.000000 19.965000 21.013000 23.559460 # Ob LIG
209 15 8 0.000000 9.602000 45.137001 22.871460 # Oa LIG
210 16 8 0.000000 22.659000 22.521999 22.871460 # Oa LIG
211 19 8 0.000000 4.721000 36.868000 18.627460 # Oa LIG
212 20 8 0.000000 17.778000 14.253000 18.627460 # Oa LIG
213 9 8 0.000000 3.455000 37.785000 23.238461 # Oa LIG
214 10 8 0.000000 16.511000 15.170000 23.238461 # Oa LIG
215 32 10 0.000000 2.515000 22.156000 23.088459 # Oc LIG
216 32 10 0.000000 15.572000 44.771000 23.088459 # Oc LIG
217 32 4 0.000000 1.314000 22.385000 23.664459 # Cc LIG
218 32 4 0.000000 14.371000 45.000000 23.664459 # Cc LIG
219 15 2 0.000000 10.794000 44.875000 22.444460 # Ca LIG
220 16 2 0.000000 23.851000 22.260000 22.444460 # Ca LIG
221 32 3 0.000000 11.924000 45.073002 23.384460 # Cb LIG
222 16 3 0.000000 24.980000 22.458000 23.384460 # Cb LIG
223 32 5 0.000000 0.159000 22.240999 22.889460 # Cd LIG
224 32 5 0.000000 13.216000 44.855999 22.889460 # Cd LIG
225 32 6 0.000000 0.271000 21.941000 21.849461 # H LIG
226 32 6 0.000000 13.328000 44.556000 21.849461 # H LIG
227 15 9 0.000000 10.990000 44.474998 21.254459 # Ob LIG
228 16 9 0.000000 24.047001 21.860001 21.254459 # Ob LIG
229 32 4 0.000000 6.070000 35.174999 23.664459 # Cc LIG
230 32 4 0.000000 19.127001 12.560000 23.664459 # Cc LIG
231 11 2 0.000000 7.967000 32.139999 22.444460 # Ca LIG
232 12 2 0.000000 21.024000 9.525000 22.444460 # Ca LIG
233 32 3 0.000000 7.231000 33.020000 23.384460 # Cb LIG
234 32 3 0.000000 20.288000 10.405000 23.384460 # Cb LIG
235 32 5 0.000000 6.773000 34.248001 22.889460 # Cd LIG
236 32 5 0.000000 19.830000 11.633000 22.889460 # Cd LIG
237 32 6 0.000000 6.977000 34.494999 21.849461 # H LIG
238 32 6 0.000000 20.033001 11.880000 21.849461 # H LIG
239 11 9 0.000000 8.216000 32.509998 21.254459 # Ob LIG
240 12 9 0.000000 21.273001 9.895000 21.254459 # Ob LIG
241 32 10 0.000000 10.541000 30.612000 20.716461 # Oc LIG
242 32 10 0.000000 23.598000 7.997000 20.716461 # Oc LIG
243 19 2 0.000000 5.090000 35.705002 19.055460 # Ca LIG
244 20 2 0.000000 18.146000 13.090000 19.055460 # Ca LIG
245 32 3 0.000000 5.826000 34.825001 18.115459 # Cb LIG
246 32 3 0.000000 18.882000 12.210000 18.115459 # Cb LIG
247 32 5 0.000000 6.284000 33.597000 18.610460 # Cd LIG
248 32 5 0.000000 19.341000 10.982000 18.610460 # Cd LIG
249 32 6 0.000000 6.080000 33.349998 19.650459 # H LIG
250 32 6 0.000000 19.136999 10.735000 19.650459 # H LIG
251 19 9 0.000000 4.841000 35.334999 20.245461 # Ob LIG
252 20 9 0.000000 17.898001 12.720000 20.245461 # Ob LIG
253 32 10 0.000000 2.515000 37.233002 20.783461 # Oc LIG
254 32 10 0.000000 15.572000 14.618000 20.783461 # Oc LIG
255 35 9 0.000000 2.067000 38.446999 17.939461 # Ob LIG
256 36 9 0.000000 15.124000 15.832000 17.939461 # Ob LIG
257 9 2 0.000000 2.263000 38.046001 23.666460 # Ca LIG
258 10 2 0.000000 15.320000 15.431000 23.666460 # Ca LIG
259 32 3 0.000000 1.133000 37.848999 22.726460 # Cb LIG
260 32 3 0.000000 14.190000 15.234000 22.726460 # Cb LIG
261 32 4 0.000000 1.314000 37.462002 21.358459 # Cc LIG
262 32 4 0.000000 14.371000 14.847000 21.358459 # Cc LIG
263 32 5 0.000000 12.898000 15.451000 23.221460 # Cd LIG
264 32 5 0.000000 25.954000 38.066002 23.221460 # Cd LIG
265 37 6 0.000000 12.785000 15.751000 17.344460 # H LIG
266 38 6 0.000000 25.841999 38.366001 17.344460 # H LIG
267 5 2 0.000000 10.794000 14.722000 20.138460 # Ca LIG
268 6 2 0.000000 23.851000 37.337002 20.138460 # Ca LIG
269 32 3 0.000000 11.924000 14.919000 21.078461 # Cb LIG
270 32 3 0.000000 24.980000 37.534000 21.078461 # Cb LIG
271 32 4 0.000000 11.743000 15.306000 22.446461 # Cc LIG
272 32 4 0.000000 24.799000 37.921001 22.446461 # Cc LIG
273 32 5 0.000000 0.159000 37.317001 20.583460 # Cd LIG
274 32 5 0.000000 13.216000 14.702000 20.583460 # Cd LIG
275 32 6 0.000000 0.272000 37.016998 19.543461 # H LIG
276 32 6 0.000000 13.328000 14.402000 19.543461 # H LIG
277 5 9 0.000000 10.990000 14.322000 18.948460 # Ob LIG
278 6 9 0.000000 24.047001 36.937000 18.948460 # Ob LIG
279 32 10 0.000000 10.541000 15.535000 23.021460 # Oc LIG
280 32 10 0.000000 23.598000 38.150002 23.021460 # Oc LIG
281 39 9 0.000000 4.841000 5.182000 17.939461 # Ob LIG
282 40 9 0.000000 17.898001 27.797001 17.939461 # Ob LIG
283 32 10 0.000000 2.515000 7.080000 18.477459 # Oc LIG
284 32 10 0.000000 15.572000 29.695000 18.477459 # Oc LIG
285 1 2 0.000000 5.090000 5.552000 23.666460 # Ca LIG
286 2 2 0.000000 18.146000 28.167000 23.666460 # Ca LIG
287 32 3 0.000000 5.826000 4.672000 22.726460 # Cb LIG
288 32 3 0.000000 18.882000 27.287001 22.726460 # Cb LIG
289 31 4 0.000000 6.070000 5.022000 21.358459 # Cc LIG
290 32 4 0.000000 19.127001 27.636999 21.358459 # Cc LIG
291 32 5 0.000000 6.284000 3.444000 23.221460 # Cd LIG
292 32 5 0.000000 19.340000 26.059000 23.221460 # Cd LIG
293 41 6 0.000000 6.080000 3.197000 17.344460 # H LIG
294 42 6 0.000000 19.136999 25.812000 17.344460 # H LIG
295 32 2 0.000000 7.967000 1.987000 20.138460 # Ca LIG
296 18 2 0.000000 21.024000 24.601999 20.138460 # Ca LIG
297 31 3 0.000000 7.231000 2.866000 21.078461 # Cb LIG
298 32 3 0.000000 20.288000 25.481001 21.078461 # Cb LIG
299 32 4 0.000000 6.987000 2.516000 22.446461 # Cc LIG
300 32 4 0.000000 20.042999 25.131001 22.446461 # Cc LIG
301 31 5 0.000000 6.773000 4.094000 20.583460 # Cd LIG
302 32 5 0.000000 19.830000 26.709000 20.583460 # Cd LIG
303 31 6 0.000000 6.977000 4.341000 19.543461 # H LIG
304 32 6 0.000000 20.033001 26.955999 19.543461 # H LIG
305 32 9 0.000000 8.216000 2.357000 18.948460 # Ob LIG
306 18 9 0.000000 21.273001 24.972000 18.948460 # Ob LIG
307 1 2 0.000000 2.263000 7.893000 21.360460 # Ca LIG
308 2 2 0.000000 15.320000 30.507999 21.360460 # Ca LIG
309 32 3 0.000000 1.133000 7.696000 20.421459 # Cb LIG
310 32 3 0.000000 14.190000 30.311001 20.421459 # Cb LIG
311 32 4 0.000000 1.314000 7.309000 19.053459 # Cc LIG
312 32 4 0.000000 14.371000 29.924000 19.053459 # Cc LIG
313 32 5 0.000000 12.898000 30.528000 20.916460 # Cd LIG
314 32 5 0.000000 25.954000 7.913000 20.916460 # Cd LIG
315 32 6 0.000000 12.785000 30.827999 21.955460 # H LIG
316 32 6 0.000000 25.841999 8.213000 21.955460 # H LIG
317 1 9 0.000000 2.067000 8.293000 22.550461 # Ob LIG
318 2 9 0.000000 15.124000 30.908001 22.550461 # Ob LIG
319 32 3 0.000000 11.924000 29.996000 18.773460 # Cb LIG
320 32 3 0.000000 24.980000 7.381000 18.773460 # Cb LIG
321 32 4 0.000000 11.743000 30.382999 20.140461 # Cc LIG
322 32 4 0.000000 24.799000 7.768000 20.140461 # Cc LIG
323 32 5 0.000000 0.159000 7.164000 18.277460 # Cd LIG
324 32 5 0.000000 13.216000 29.778999 18.277460 # Cd LIG
325 13 2 0.000000 10.794000 29.799000 17.833460 # Ca LIG
326 14 2 0.000000 23.851000 7.184000 17.833460 # Ca LIG
327 43 9 0.000000 10.990000 29.398001 23.559460 # Ob LIG
328 44 9 0.000000 24.047001 6.783000 23.559460 # Ob LIG
329 25 2 0.000000 5.090000 20.628000 21.360460 # Ca LIG
330 32 2 0.000000 18.146000 43.243000 21.360460 # Ca LIG
331 32 3 0.000000 5.826000 19.749001 20.421459 # Cb LIG
332 32 3 0.000000 18.882000 42.363998 20.421459 # Cb LIG
333 32 4 0.000000 6.070000 20.099001 19.053459 # Cc LIG
334 32 4 0.000000 19.127001 42.714001 19.053459 # Cc LIG
335 32 5 0.000000 6.284000 18.521000 20.916460 # Cd LIG
336 32 5 0.000000 19.341000 41.136002 20.916460 # Cd LIG
337 32 6 0.000000 6.080000 18.274000 21.955460 # H LIG
338 32 6 0.000000 19.136999 40.889000 21.955460 # H LIG
339 25 9 0.000000 4.841000 20.257999 22.550461 # Ob LIG
340 32 9 0.000000 17.898001 42.873001 22.550461 # Ob LIG
341 32 3 0.000000 7.231000 17.943001 18.773460 # Cb LIG
342 32 3 0.000000 20.288000 40.557999 18.773460 # Cb LIG
343 32 4 0.000000 6.987000 17.593000 20.140461 # Cc LIG
344 32 4 0.000000 20.042999 40.208000 20.140461 # Cc LIG
345 32 5 0.000000 6.773000 19.171000 18.277460 # Cd LIG
346 32 5 0.000000 19.830000 41.785999 18.277460 # Cd LIG
347 3 2 0.000000 7.967000 17.063000 17.833460 # Ca LIG
348 4 2 0.000000 21.024000 39.678001 17.833460 # Ca LIG
349 45 9 0.000000 8.216000 17.433001 23.559460 # Ob LIG
350 46 9 0.000000 21.273001 40.048000 23.559460 # Ob LIG
351 47 9 0.000000 6.149000 24.216999 17.939461 # Ob LIG
352 48 9 0.000000 19.205999 1.602000 17.939461 # Ob LIG
353 23 8 0.000000 3.455000 22.708000 18.627460 # Oa LIG
354 24 8 0.000000 16.511000 0.093000 18.627460 # Oa LIG
355 32 10 0.000000 4.874000 24.434999 20.783461 # Oc LIG
356 32 10 0.000000 17.930000 1.820000 20.783461 # Oc LIG
357 5 2 0.000000 5.704000 24.247000 23.666460 # Ca LIG
358 32 2 0.000000 18.761000 1.632000 23.666460 # Ca LIG
359 32 3 0.000000 6.098000 25.323999 22.726460 # Cb LIG
360 32 3 0.000000 19.155001 2.709000 22.726460 # Cb LIG
361 32 4 0.000000 5.672000 25.361000 21.358459 # Cc LIG
362 32 4 0.000000 18.729000 2.746000 21.358459 # Cc LIG
363 32 5 0.000000 6.932000 26.334999 23.221460 # Cd LIG
364 32 5 0.000000 19.989000 3.720000 23.221460 # Cd LIG
365 49 6 0.000000 7.248000 26.282000 17.344460 # H LIG
366 50 6 0.000000 20.305000 3.667000 17.344460 # H LIG
367 5 8 0.000000 4.881000 23.346001 23.238461 # Oa LIG
368 32 8 0.000000 17.938000 0.731000 23.238461 # Oa LIG
369 9 2 0.000000 7.353000 28.521000 20.138460 # Ca LIG
370 10 2 0.000000 20.409000 5.906000 20.138460 # Ca LIG
371 32 3 0.000000 6.959000 27.444000 21.078461 # Cb LIG
372 32 3 0.000000 20.016001 4.829000 21.078461 # Cb LIG
373 32 4 0.000000 7.384000 27.407000 22.446461 # Cc LIG
374 32 4 0.000000 20.441000 4.792000 22.446461 # Cc LIG
375 32 5 0.000000 6.125000 26.434000 20.583460 # Cd LIG
376 32 5 0.000000 19.181000 3.819000 20.583460 # Cd LIG
377 32 6 0.000000 5.809000 26.486000 19.543461 # H LIG
378 32 6 0.000000 18.865999 3.871000 19.543461 # H LIG
379 9 9 0.000000 6.908000 28.552000 18.948460 # Ob LIG
380 10 9 0.000000 19.965000 5.937000 18.948460 # Ob LIG
381 9 8 0.000000 8.175000 29.422001 20.566460 # Oa LIG
382 10 8 0.000000 21.232000 6.807000 20.566460 # Oa LIG
383 32 10 0.000000 8.183000 28.333000 23.021460 # Oc LIG
384 32 10 0.000000 21.240000 5.718000 23.021460 # Oc LIG
385 23 2 0.000000 2.263000 22.969999 19.055460 # Ca LIG
386 24 2 0.000000 15.320000 0.355000 19.055460 # Ca LIG
387 23 3 0.000000 1.133000 22.771999 18.115459 # Cb LIG
388 32 3 0.000000 14.190000 0.157000 18.115459 # Cb LIG
389 32 5 0.000000 12.898000 0.374000 18.610460 # Cd LIG
390 32 5 0.000000 25.954000 22.989000 18.610460 # Cd LIG
391 32 6 0.000000 12.785000 0.674000 19.650459 # H LIG
392 32 6 0.000000 25.841999 23.289000 19.650459 # H LIG
393 23 9 0.000000 2.067000 23.370001 20.245461 # Ob LIG
394 24 9 0.000000 15.124000 0.755000 20.245461 # Ob LIG
395 32 10 0.000000 7.389000 31.514999 18.410460 # Oc LIG
396 32 10 0.000000 20.445999 8.900000 18.410460 # Oc LIG
397 51 6 0.000000 5.809000 41.563000 24.154461 # H LIG
398 52 6 0.000000 18.865999 18.948000 24.154461 # H LIG
399 32 10 0.000000 10.541000 0.459000 18.410460 # Oc LIG
400 32 10 0.000000 23.598000 23.073999 18.410460 # Oc LIG
401 32 4 0.000000 11.743000 0.230000 17.835461 # Cc LIG
402 32 4 0.000000 24.799999 22.844999 17.835461 # Cc LIG
403 32 4 0.000000 6.986000 32.669998 17.835461 # Cc LIG
404 32 4 0.000000 20.042999 10.055000 17.835461 # Cc LIG
405 53 6 0.000000 0.271000 6.864000 24.154461 # H LIG
406 54 6 0.000000 13.328000 29.479000 24.154461 # H LIG
407 55 6 0.000000 6.977000 19.417999 24.154461 # H LIG
408 56 6 0.000000 20.033001 42.033001 24.154461 # H LIG
409 1 7 0.000000 5.314000 7.966000 0.934500 # Mg LIG
410 2 7 0.000000 18.371000 30.580999 0.934500 # Mg LIG
411 3 7 0.000000 4.242000 6.491000 26.295460 # Mg LIG
412 4 7 0.000000 17.299000 29.106001 26.295460 # Mg LIG
413 1 7 0.000000 3.501000 8.158000 3.240500 # Mg LIG
414 2 7 0.000000 16.558001 30.773001 3.240500 # Mg LIG
415 5 7 0.000000 7.743000 14.649000 26.732460 # Mg LIG
416 6 7 0.000000 20.799000 37.264000 26.732460 # Mg LIG
417 7 7 0.000000 8.815000 16.124001 1.370500 # Mg LIG
418 8 7 0.000000 21.872000 38.738998 1.370500 # Mg LIG
419 3 7 0.000000 9.556000 14.457000 24.426460 # Mg LIG
420 4 7 0.000000 22.613001 37.071999 24.426460 # Mg LIG
421 9 7 0.000000 8.815000 31.200001 26.732460 # Mg LIG
422 10 7 0.000000 21.872000 8.585000 26.732460 # Mg LIG
423 11 7 0.000000 9.556000 29.534000 1.370500 # Mg LIG
424 12 7 0.000000 22.613001 6.919000 1.370500 # Mg LIG
425 5 7 0.000000 4.242000 21.568001 3.240500 # Mg LIG
426 13 7 0.000000 17.299000 44.182999 3.240500 # Mg LIG
427 14 7 0.000000 8.815000 1.047000 24.426460 # Mg LIG
428 8 7 0.000000 21.872000 23.662001 24.426460 # Mg LIG
429 9 7 0.000000 5.314000 38.118999 3.240500 # Mg LIG
430 10 7 0.000000 18.371000 15.504000 3.240500 # Mg LIG
431 15 7 0.000000 7.743000 44.801998 1.370500 # Mg LIG
432 16 7 0.000000 20.799000 22.187000 1.370500 # Mg LIG
433 17 7 0.000000 9.556000 44.611000 26.732460 # Mg LIG
434 18 7 0.000000 22.613001 21.996000 26.732460 # Mg LIG
435 19 7 0.000000 3.501000 38.311001 26.295460 # Mg LIG
436 20 7 0.000000 16.558001 15.696000 26.295460 # Mg LIG
437 21 7 0.000000 4.242000 36.645000 0.934500 # Mg LIG
438 22 7 0.000000 17.299000 14.030000 0.934500 # Mg LIG
439 23 7 0.000000 5.314000 23.042999 26.295460 # Mg LIG
440 24 7 0.000000 18.371000 0.428000 26.295460 # Mg LIG
441 25 7 0.000000 3.501000 23.233999 0.934500 # Mg LIG
442 26 7 0.000000 16.558001 0.619000 0.934500 # Mg LIG
443 13 7 0.000000 7.743000 29.726000 24.426460 # Mg LIG
444 14 7 0.000000 20.799000 7.111000 24.426460 # Mg LIG
445 3 2 0.000000 5.704000 9.170000 25.972460 # Ca LIG
446 4 2 0.000000 18.761000 31.785000 25.972460 # Ca LIG
447 27 3 0.000000 6.098000 10.247000 25.032459 # Cb LIG
448 28 3 0.000000 19.155001 32.862000 25.032459 # Cb LIG
449 27 5 0.000000 6.932000 11.258000 25.527460 # Cd LIG
450 28 5 0.000000 19.989000 33.873001 25.527460 # Cd LIG
451 27 6 0.000000 7.248000 11.206000 26.567459 # H LIG
452 28 6 0.000000 20.305000 33.820999 26.567459 # H LIG
453 3 9 0.000000 6.149000 9.140000 27.162460 # Ob LIG
454 4 9 0.000000 19.205999 31.754999 27.162460 # Ob LIG
455 3 8 0.000000 4.881000 8.269000 25.544460 # Oa LIG
456 4 8 0.000000 17.938000 30.884001 25.544460 # Oa LIG
457 27 10 0.000000 8.183000 13.257000 25.327459 # Oc LIG
458 28 10 0.000000 21.240000 35.872002 25.327459 # Oc LIG
459 1 8 0.000000 4.721000 6.715000 2.488500 # Oa LIG
460 2 8 0.000000 17.777000 29.330000 2.488500 # Oa LIG
461 1 8 0.000000 3.455000 7.631000 0.183500 # Oa LIG
462 2 8 0.000000 16.511000 30.246000 0.183500 # Oa LIG
463 29 10 0.000000 4.874000 9.358000 2.338500 # Oc LIG
464 30 10 0.000000 17.930000 31.973000 2.338500 # Oc LIG
465 31 10 0.000000 5.668000 6.177000 0.033500 # Oc LIG
466 32 10 0.000000 18.725000 28.792000 0.033500 # Oc LIG
467 29 4 0.000000 5.672000 10.284000 2.914500 # Cc LIG
468 30 4 0.000000 18.729000 32.898998 2.914500 # Cc LIG
469 7 2 0.000000 7.353000 13.445000 1.694500 # Ca LIG
470 8 2 0.000000 20.409000 36.060001 1.694500 # Ca LIG
471 29 3 0.000000 6.959000 12.368000 2.634500 # Cb LIG
472 30 3 0.000000 20.016001 34.983002 2.634500 # Cb LIG
473 27 4 0.000000 7.384000 12.331000 24.752460 # Cc LIG
474 28 4 0.000000 20.441000 34.945999 24.752460 # Cc LIG
475 29 5 0.000000 6.125000 11.357000 2.139500 # Cd LIG
476 30 5 0.000000 19.181000 33.972000 2.139500 # Cd LIG
477 29 6 0.000000 5.809000 11.409000 1.099500 # H LIG
478 30 6 0.000000 18.865999 34.023998 1.099500 # H LIG
479 7 9 0.000000 6.908000 13.475000 0.504500 # Ob LIG
480 8 9 0.000000 19.965000 36.090000 0.504500 # Ob LIG
481 7 8 0.000000 8.175000 14.346000 2.121500 # Oa LIG
482 8 8 0.000000 21.232000 36.960999 2.121500 # Oa LIG
483 3 8 0.000000 8.336000 15.900000 25.177460 # Oa LIG
484 4 8 0.000000 21.393000 38.514999 25.177460 # Oa LIG
485 5 8 0.000000 9.602000 14.984000 27.483459 # Oa LIG
486 6 8 0.000000 22.659000 37.598999 27.483459 # Oa LIG
487 32 10 0.000000 7.389000 16.438000 27.633459 # Oc LIG
488 32 10 0.000000 20.445999 39.053001 27.633459 # Oc LIG
489 13 8 0.000000 9.602000 30.059999 25.177460 # Oa LIG
490 14 8 0.000000 22.659000 7.445000 25.177460 # Oa LIG
491 11 8 0.000000 8.336000 30.976999 2.121500 # Oa LIG
492 12 8 0.000000 21.393000 8.362000 2.121500 # Oa LIG
493 25 8 0.000000 4.721000 21.791000 0.183500 # Oa LIG
494 32 8 0.000000 17.777000 44.405998 0.183500 # Oa LIG
495 32 10 0.000000 5.668000 21.254000 25.394459 # Oc LIG
496 32 10 0.000000 18.725000 43.868999 25.394459 # Oc LIG
497 32 8 0.000000 8.336000 0.824000 27.483459 # Oa LIG
498 18 8 0.000000 21.393000 23.438999 27.483459 # Oa LIG
499 32 10 0.000000 7.389000 1.361000 2.271500 # Oc LIG
500 32 10 0.000000 20.445999 23.976000 2.271500 # Oc LIG
501 32 10 0.000000 4.874000 39.512001 25.394459 # Oc LIG
502 32 10 0.000000 17.930000 16.896999 25.394459 # Oc LIG
503 21 2 0.000000 5.704000 39.324001 0.610500 # Ca LIG
504 22 2 0.000000 18.761000 16.709000 0.610500 # Ca LIG
505 32 3 0.000000 6.098000 40.401001 27.338459 # Cb LIG
506 32 3 0.000000 19.155001 17.785999 27.338459 # Cb LIG
507 32 4 0.000000 5.672000 40.438000 25.970459 # Cc LIG
508 32 4 0.000000 18.729000 17.823000 25.970459 # Cc LIG
509 32 5 0.000000 6.932000 41.410999 0.166500 # Cd LIG
510 32 5 0.000000 19.989000 18.796000 0.166500 # Cd LIG
511 32 6 0.000000 7.248000 41.359001 1.205500 # H LIG
512 32 6 0.000000 20.305000 18.743999 1.205500 # H LIG
513 21 9 0.000000 6.149000 39.292999 1.800500 # Ob LIG
514 22 9 0.000000 19.205999 16.677999 1.800500 # Ob LIG
515 21 8 0.000000 4.882000 38.423000 0.183500 # Oa LIG
516 22 8 0.000000 17.938000 15.808000 0.183500 # Oa LIG
517 32 3 0.000000 6.959000 42.521000 25.690460 # Cb LIG
518 32 3 0.000000 20.016001 19.906000 25.690460 # Cb LIG
519 32 4 0.000000 7.384000 42.484001 27.057461 # Cc LIG
520 32 4 0.000000 20.441000 19.868999 27.057461 # Cc LIG
521 32 5 0.000000 6.125000 41.509998 25.194460 # Cd LIG
522 32 5 0.000000 19.181000 18.895000 25.194460 # Cd LIG
523 32 8 0.000000 8.175000 44.499001 25.177460 # Oa LIG
524 8 8 0.000000 21.232000 21.884001 25.177460 # Oa LIG
525 32 10 0.000000 8.183000 43.410000 27.633459 # Oc LIG
526 32 10 0.000000 21.240000 20.795000 27.633459 # Oc LIG
527 32 10 0.000000 5.668000 36.330002 2.338500 # Oc LIG
528 32 10 0.000000 18.725000 13.715000 2.338500 # Oc LIG
529 32 2 0.000000 7.353000 43.598000 24.750460 # Ca LIG
530 8 2 0.000000 20.409000 20.983000 24.750460 # Ca LIG
531 33 9 0.000000 6.908000 43.627998 2.809500 # Ob LIG
532 34 9 0.000000 19.965000 21.013000 2.809500 # Ob LIG
533 15 8 0.000000 9.602000 45.137001 2.121500 # Oa LIG
534 16 8 0.000000 22.659000 22.521999 2.121500 # Oa LIG
535 19 8 0.000000 4.721000 36.868000 25.544460 # Oa LIG
536 20 8 0.000000 17.778000 14.253000 25.544460 # Oa LIG
537 9 8 0.000000 3.455000 37.785000 2.488500 # Oa LIG
538 10 8 0.000000 16.511000 15.170000 2.488500 # Oa LIG
539 32 10 0.000000 2.515000 22.156000 2.338500 # Oc LIG
540 32 10 0.000000 15.572000 44.771000 2.338500 # Oc LIG
541 32 4 0.000000 1.314000 22.385000 2.914500 # Cc LIG
542 32 4 0.000000 14.371000 45.000000 2.914500 # Cc LIG
543 15 2 0.000000 10.794000 44.875000 1.694500 # Ca LIG
544 16 2 0.000000 23.851000 22.260000 1.694500 # Ca LIG
545 32 3 0.000000 11.924000 45.073002 2.634500 # Cb LIG
546 16 3 0.000000 24.980000 22.458000 2.634500 # Cb LIG
547 32 5 0.000000 0.159000 22.240999 2.139500 # Cd LIG
548 32 5 0.000000 13.216000 44.855999 2.139500 # Cd LIG
549 32 6 0.000000 0.271000 21.941000 1.099500 # H LIG
550 32 6 0.000000 13.328000 44.556000 1.099500 # H LIG
551 15 9 0.000000 10.990000 44.474998 0.504500 # Ob LIG
552 16 9 0.000000 24.047001 21.860001 0.504500 # Ob LIG
553 32 4 0.000000 6.070000 35.174999 2.914500 # Cc LIG