units           real				# units: 1A, 1fs, kcal, K
boundary        p p p
box             tilt large

#### ATOM SETTINGS ####
atom_style      full
pair_style      lj/cut 12.50
pair_modify     tail yes mix arithmetic
special_bonds   lj/coul 0.0 0.0 1.0
dielectric      1.0

#### LOAD STRUCTURES ####
read_data       data.MFI
Reading data file ...
  triclinic box = (0.0000000 0.0000000 0.0000000) to (40.180000 39.476000 26.284000) with tilt (0.0000000 0.0000000 0.0000000)
  2 by 2 by 1 MPI processor grid
  reading atoms ...
  304 atoms
Finding 1-2 1-3 1-4 neighbors ...
  special bond factors lj:    0        0        1       
  special bond factors coul:  0        0        1       
     0 = max # of 1-2 neighbors
     0 = max # of 1-3 neighbors
     1 = max # of special neighbors
  special bonds CPU = 0.000 seconds
  read_data CPU = 0.002 seconds
replicate       1 1 1
Replicating atoms ...
  triclinic box = (0.0000000 0.0000000 0.0000000) to (40.180000 39.476000 26.284000) with tilt (0.0000000 0.0000000 0.0000000)
  2 by 2 by 1 MPI processor grid
  304 atoms
Finding 1-2 1-3 1-4 neighbors ...
  special bond factors lj:    0        0        1       
  special bond factors coul:  0        0        1       
     0 = max # of 1-2 neighbors
     0 = max # of 1-3 neighbors
     1 = max # of special neighbors
  special bonds CPU = 0.000 seconds
  replicate CPU = 0.002 seconds

#### ATOM GROUPINGS ####
group           CH4    type    3
0 atoms in group CH4
group           fram   type    1:2
304 atoms in group fram

#### VARIABLE SETTINGS ####
variable        dt      equal 1.00
variable        tns     equal ${dt}*1000000 # 1 ns=1e6 fs
variable        tns     equal 1*1000000 
variable        rsd     equal 1234567

variable        stemp   equal 298.00
variable        tdamp   equal 100*${dt}
variable        tdamp   equal 100*1
variable        teq     equal ${tns}*1
variable        teq     equal 1000000*1
variable        tdc     equal ${tns}*10
variable        tdc     equal 1000000*10
variable        tpr     equal ${dt}*1000
variable        tpr     equal 1*1000

variable        nmol    equal 16

#### COMPUTE SETTINGS ####
compute         CH4Temp CH4 temp
compute         CH4ke CH4 ke
compute         framTemp fram temp
thermo_style    custom atoms step temp c_CH4Temp c_framTemp ke c_CH4ke etotal press vol
neigh_modify    exclude group CH4 CH4

#### SIMULATION SETTINGS ####
## INSERT CH4 ##
molecule        CH4 CH4.molecule
Read molecule template CH4:
  1 molecules
  1 atoms with max type 3
  0 bonds with max type 0
  0 angles with max type 0
  0 dihedrals with max type 0
  0 impropers with max type 0
fix             1 CH4 rigid/small molecule langevin ${stemp} ${stemp} ${tdamp} ${rsd} mol CH4
fix             1 CH4 rigid/small molecule langevin 298 ${stemp} ${tdamp} ${rsd} mol CH4
fix             1 CH4 rigid/small molecule langevin 298 298 ${tdamp} ${rsd} mol CH4
fix             1 CH4 rigid/small molecule langevin 298 298 100 ${rsd} mol CH4
fix             1 CH4 rigid/small molecule langevin 298 298 100 1234567 mol CH4
  create bodies CPU = 0.000 seconds
  0 rigid bodies with 0 atoms
  0.0000000 = max distance from body owner to body atom
fix             2 CH4 langevin 0.00 0.00 ${tdamp} ${rsd}
fix             2 CH4 langevin 0.00 0.00 100 ${rsd}
fix             2 CH4 langevin 0.00 0.00 100 1234567
fix             3 CH4 nve
region          cell block 0 EDGE 0 EDGE 0 EDGE units lattice
fix             4 CH4 deposit ${nmol} 0 ${tpr} ${rsd} region cell near 2.00 mol CH4 rigid 1
fix             4 CH4 deposit 16 0 ${tpr} ${rsd} region cell near 2.00 mol CH4 rigid 1
fix             4 CH4 deposit 16 0 1000 ${rsd} region cell near 2.00 mol CH4 rigid 1
fix             4 CH4 deposit 16 0 1000 1234567 region cell near 2.00 mol CH4 rigid 1
thermo          ${tpr}
thermo          1000
variable 		tmp equal floor(${tpr}*${nmol}*5)
variable 		tmp equal floor(1000*${nmol}*5)
variable 		tmp equal floor(1000*16*5)
run             ${tmp}
run             80000
Neighbor list info ...
  update every 1 steps, delay 10 steps, check yes
  max neighbors/atom: 2000, page size: 100000
  master list distance cutoff = 14.5
  ghost atom cutoff = 14.5
  binsize = 7.25, bins = 6 6 4
  1 neighbor lists, perpetual/occasional/extra = 1 0 0
  (1) pair lj/cut, perpetual
      attributes: half, newton on
      pair build: half/bin/newton/tri
      stencil: half/bin/3d/newton/tri
      bin: standard
Per MPI rank memory allocation (min/avg/max) = 7.529 | 7.529 | 7.529 Mbytes
Atoms Step Temp c_CH4Temp c_framTemp KinEng c_CH4ke TotEng Press Volume 
     304        0            0            0            0            0            0      1996329     13203789    41690.253 
     305     1000   0.67115011            0            0   0.60617301   0.60617301    1996328.5     13204018    41690.253 
     306     2000    1.5366627            0            0    1.3878914    1.3878914    1996328.9     13204616    41690.253 
     307     3000     1.240585            0            0    1.1204783    1.1204783    1996328.3     13203680    41690.253 
     308     4000     0.448312            0            0   0.40490888   0.40490888    1996326.5     13203640    41690.253 
     309     5000    1.5061645            0            0    1.3603458    1.3603458    1996324.4     13203318    41690.253 
     310     6000     2.337841            0            0     2.111504     2.111504    1996321.8     13205735    41690.253 
     311     7000     3.136886            0            0    2.8331897    2.8331897    1996322.3     13202448    41690.253 
     312     8000    2.9434119            0            0    2.6584468    2.6584468    1996321.6     13202512    41690.253 
     313     9000    6.2499451            0            0    5.6448595    5.6448595    1996324.5     13205280    41690.253 
     314    10000    5.0863074            0            0    4.5938788    4.5938788    1996324.6     13204059    41690.253 
     315    11000    5.5291746            0            0    4.9938701    4.9938701    1996324.1     13204020    41690.253 
     316    12000    6.0060129            0            0    5.4245434    5.4245434    1996324.5     13204150    41690.253 
     317    13000    5.7475481            0            0    5.1911017    5.1911017    1996324.1     13203019    41690.253 
     318    14000    6.6978609            0            0    6.0494105    6.0494105    1996323.8     13202376    41690.253 
     319    15000    5.8950767            0            0    5.3243475    5.3243475    1996320.7     13204868    41690.253 
     320    16000    6.9315615            0            0    6.2604855    6.2604855    1996318.8     13202888    41690.253 
     320    17000    6.3978732            0            0    5.7784659    5.7784659    1996316.7     13205098    41690.253 
     320    18000    6.6727515            0            0     6.026732     6.026732    1996317.2     13204055    41690.253 
     320    19000    7.6493684            0            0    6.9087982    6.9087982    1996318.4     13203796    41690.253 
     320    20000    7.9282792            0            0    7.1607064    7.1607064    1996317.2     13204967    41690.253 
     320    21000    11.193909            0            0    10.110176    10.110176    1996319.5     13203175    41690.253 
     320    22000    7.9813806            0            0    7.2086668    7.2086668    1996316.1     13204378    41690.253 
     320    23000    7.7240312            0            0    6.9762326    6.9762326    1996316.8     13203003    41690.253 
     320    24000    7.7933151            0            0    7.0388087    7.0388087    1996317.2     13202290    41690.253 
     320    25000    5.5431907            0            0    5.0065292    5.0065292    1996313.7     13204683    41690.253 
     320    26000    7.0536754            0            0    6.3707769    6.3707769    1996312.7     13202833    41690.253 
     320    27000    6.9438186            0            0    6.2715559    6.2715559    1996312.2     13203906    41690.253 
     320    28000    6.8468389            0            0    6.1839652    6.1839652    1996311.4     13204535    41690.253 
     320    29000      6.79211            0            0    6.1345349    6.1345349    1996313.1     13204089    41690.253 
     320    30000    7.1973974            0            0    6.5005846    6.5005846      1996313     13202959    41690.253 
     320    31000    5.8458577            0            0    5.2798936    5.2798936    1996311.2     13204706    41690.253 
     320    32000    10.843947            0            0    9.7940951    9.7940951    1996315.8     13201695    41690.253 
     320    33000    5.0066646            0            0    4.5219466    4.5219466    1996309.4     13205718    41690.253 
     320    34000    8.5449823            0            0    7.7177036    7.7177036    1996313.2     13204083    41690.253 
     320    35000    4.7584292            0            0     4.297744     4.297744    1996309.2     13204587    41690.253 
     320    36000      7.38128            0            0    6.6666647    6.6666647    1996308.1     13205057    41690.253 
     320    37000    10.508826            0            0    9.4914184    9.4914184    1996308.7     13204464    41690.253 
     320    38000    9.9615557            0            0    8.9971321    8.9971321    1996309.9     13205195    41690.253 
     320    39000    7.6538457            0            0     6.912842     6.912842    1996308.1     13202343    41690.253 
     320    40000    7.7089934            0            0    6.9626507    6.9626507    1996306.2     13203529    41690.253 
     320    41000    10.815443            0            0    9.7683507    9.7683507      1996309     13204417    41690.253 
     320    42000    8.4020258            0            0    7.5885875    7.5885875    1996306.5     13205418    41690.253 
     320    43000    6.0468666            0            0    5.4614419    5.4614419      1996303     13201987    41690.253 
     320    44000    6.6454908            0            0    6.0021106    6.0021106    1996305.1     13204727    41690.253 
     320    45000     6.544346            0            0     5.910758     5.910758    1996306.7     13204084    41690.253 
     320    46000    7.8706497            0            0    7.1086563    7.1086563    1996306.4     13204688    41690.253 
     320    47000    7.5288399            0            0    6.7999386    6.7999386    1996305.2     13205015    41690.253 
     320    48000     11.00657            0            0    9.9409742    9.9409742    1996308.4     13204965    41690.253 
     320    49000    9.4483733            0            0    8.5336332    8.5336332    1996309.7     13205665    41690.253 
     320    50000    4.8300358            0            0    4.3624181    4.3624181    1996305.9     13203542    41690.253 
     320    51000    6.4724001            0            0    5.8457776    5.8457776    1996306.3     13200619    41690.253 
     320    52000    5.3478748            0            0    4.8301227    4.8301227      1996307     13204072    41690.253 
     320    53000    6.1897937            0            0    5.5905316    5.5905316    1996308.8     13202963    41690.253 
     320    54000    5.6955403            0            0    5.1441291    5.1441291      1996308     13204235    41690.253 
     320    55000    6.8707877            0            0    6.2055955    6.2055955    1996308.5     13205490    41690.253 
     320    56000    7.3891952            0            0    6.6738136    6.6738136    1996309.7     13204069    41690.253 
     320    57000    8.3980505            0            0    7.5849969    7.5849969    1996308.4     13205068    41690.253 
     320    58000    5.5027099            0            0    4.9699675    4.9699675    1996306.8     13203880    41690.253 
     320    59000    7.1007688            0            0    6.4133111    6.4133111    1996308.4     13204043    41690.253 
     320    60000    7.9764547            0            0    7.2042178    7.2042178    1996309.1     13205303    41690.253 
     320    61000    9.3828824            0            0    8.4744828    8.4744828    1996310.3     13203408    41690.253 
     320    62000     6.575846            0            0    5.9392084    5.9392084    1996307.6     13202914    41690.253 
     320    63000    6.3971877            0            0    5.7778469    5.7778469    1996308.6     13202899    41690.253 
     320    64000    7.6998713            0            0    6.9544117    6.9544117    1996310.1     13203146    41690.253 
     320    65000    7.1692248            0            0    6.4751395    6.4751395    1996309.8     13204591    41690.253 
     320    66000    6.3202494            0            0    5.7083572    5.7083572    1996309.3     13206240    41690.253 
     320    67000    6.2265749            0            0    5.6237519    5.6237519    1996307.9     13202909    41690.253 
     320    68000    9.9104134            0            0    8.9509411    8.9509411    1996311.7     13204100    41690.253 
     320    69000    8.6231056            0            0    7.7882635    7.7882635    1996310.2     13205273    41690.253 
     320    70000     9.052113            0            0    8.1757367    8.1757367    1996311.6     13201354    41690.253 
     320    71000    8.6329756            0            0     7.797178     7.797178    1996309.9     13203747    41690.253 
     320    72000    5.4146396            0            0    4.8904236    4.8904236    1996308.4     13202960    41690.253 
     320    73000    7.4551701            0            0    6.7334011    6.7334011    1996308.7     13203686    41690.253 
     320    74000    7.3335391            0            0    6.6235458    6.6235458    1996307.3     13205030    41690.253 
     320    75000    6.8927992            0            0    6.2254759    6.2254759    1996306.4     13203801    41690.253 
     320    76000     8.059576            0            0    7.2792917    7.2792917    1996306.1     13202368    41690.253 
     320    77000    9.6669618            0            0    8.7310592    8.7310592    1996309.2     13202212    41690.253 
     320    78000    8.6862261            0            0     7.845273     7.845273    1996307.7     13204006    41690.253 
     320    79000    6.7805619            0            0    6.1241048    6.1241048    1996304.7     13201512    41690.253 
     320    80000    6.8449467            0            0    6.1822563    6.1822563    1996305.6     13202859    41690.253 
Loop time of 5.32295 on 4 procs for 80000 steps with 320 atoms

Performance: 1298.529 ns/day, 0.018 hours/ns, 15029.268 timesteps/s
100.0% CPU use with 4 MPI tasks x no OpenMP threads

MPI task timing breakdown:
Section |  min time  |  avg time  |  max time  |%varavg| %total
---------------------------------------------------------------
Pair    | 2.5015     | 2.5921     | 2.6711     |   3.8 | 48.70
Bond    | 0.0050044  | 0.0054755  | 0.0058987  |   0.5 |  0.10
Neigh   | 0.088281   | 0.091559   | 0.095302   |   1.0 |  1.72
Comm    | 1.0049     | 1.0905     | 1.1882     |   6.3 | 20.49
Output  | 0.0020457  | 0.0022891  | 0.003006   |   0.9 |  0.04
Modify  | 1.3645     | 1.3795     | 1.3947     |   1.1 | 25.92
Other   |            | 0.1615     |            |       |  3.03

Nlocal:        80.0000 ave          82 max          78 min
Histogram: 2 0 0 0 0 0 0 0 0 2
Nghost:        776.500 ave         786 max         767 min
Histogram: 1 0 1 0 0 0 0 1 0 1
Neighs:        3635.25 ave        3789 max        3494 min
Histogram: 2 0 0 0 0 0 0 0 1 1

Total # of neighbors = 14541
Ave neighs/atom = 45.440625
Ave special neighs/atom = 0.0000000
Neighbor list builds = 365
Dangerous builds = 2
unfix           1
unfix           2
unfix           3
unfix           4

## EQUILIBRIUM ##
reset_timestep  0
fix             eqCH4 CH4 nvt temp ${stemp} ${stemp} ${tdamp}
fix             eqCH4 CH4 nvt temp 298 ${stemp} ${tdamp}
fix             eqCH4 CH4 nvt temp 298 298 ${tdamp}
fix             eqCH4 CH4 nvt temp 298 298 100
dump            eqtrj all custom ${tpr} dump.lammpstrj id type x y z
dump            eqtrj all custom 1000 dump.lammpstrj id type x y z
run             ${teq}
run             1000000
Per MPI rank memory allocation (min/avg/max) = 7.470 | 7.470 | 7.470 Mbytes
Atoms Step Temp c_CH4Temp c_framTemp KinEng c_CH4ke TotEng Press Volume 
     320        0    6.5016265    138.26792            0    6.1822563    6.1822563    1996305.1     13203771    41690.253 
     320     1000    12.304962    261.68552            0    11.700523    11.700523      1996315     13203763    41690.253 
     320     2000    17.947927    381.69258            0    17.066296    17.066296    1996324.5     13203775    41690.253 
     320     3000    20.689061    439.98737            0    19.672782    19.672782    1996323.4     13203771    41690.253 
     320     4000    16.342463    347.54972            0    15.539696    15.539696    1996325.2     13203785    41690.253 
     320     5000    17.937617    381.47333            0    17.056493    17.056493    1996327.2     13203798    41690.253 
     320     6000    9.6167248    204.51568            0    9.1443359    9.1443359    1996314.7     13203796    41690.253 
     320     7000    15.239993    324.10386            0     14.49138     14.49138    1996319.6     13203767    41690.253 
     320     8000    14.123027     300.3497            0    13.429281    13.429281    1996318.4     13203772    41690.253 
     320     9000      13.2141    281.01986            0    12.565002    12.565002    1996317.2     13203770    41690.253 
     320    10000     11.41459    242.75028            0    10.853887    10.853887    1996317.9     13203769    41690.253 
     320    11000     14.97653    318.50087            0    14.240859    14.240859    1996320.1     13203760    41690.253 
     320    12000     14.31855    304.50783            0      13.6152      13.6152    1996318.2     13203805    41690.253 
     320    13000    16.291366    346.46305            0    15.491108    15.491108    1996319.6     13203768    41690.253 
     320    14000    14.438565    307.06015            0     13.72932     13.72932    1996318.3     13203767    41690.253 
     320    15000    15.443314    328.42782            0    14.684714    14.684714    1996320.3     13203765    41690.253 
     320    16000    14.502383    308.41734            0    13.790003    13.790003    1996316.8     13203764    41690.253 
     320    17000    13.798997    293.45868            0    13.121169    13.121169    1996318.9     13203783    41690.253 
     320    18000    16.472146    350.30765            0    15.663008    15.663008    1996320.8     13203765    41690.253 
     320    19000    14.261018    303.28431            0    13.560494    13.560494    1996322.8     13203774    41690.253 
     320    20000    14.711757    312.87003            0    13.989092    13.989092    1996319.4     13203783    41690.253 
     320    21000    22.125191    470.52907            0    21.038367    21.038367    1996323.4     13203805    41690.253 
     320    22000    12.611425    268.20297            0    11.991931    11.991931    1996317.8     13203775    41690.253 
     320    23000    10.593105    225.28004            0    10.072755    10.072755    1996316.7     13203778    41690.253 
     320    24000    11.524795    245.09397            0    10.958678    10.958678    1996318.6     13203786    41690.253 
     320    25000    14.433496    306.95236            0      13.7245      13.7245    1996320.1     13203778    41690.253 
     320    26000    11.446184    243.42218            0    10.883929    10.883929    1996316.8     13203772    41690.253 
     320    27000    15.089337    320.89991            0    14.348125    14.348125    1996319.2     13203763    41690.253 
     320    28000    16.967299    360.83789            0    16.133838    16.133838    1996321.5     13203777    41690.253 
     320    29000    16.055857    341.45456            0    15.267168    15.267168    1996321.7     13203773    41690.253 
     320    30000    11.950342    254.14395            0    11.363322    11.363322    1996315.6     13203779    41690.253 
     320    31000     11.74785    249.83762            0    11.170777    11.170777      1996315     13203767    41690.253 
     320    32000    13.807085    293.63068            0    13.128859    13.128859      1996323     13203777    41690.253 
     320    33000    15.696784    333.81828            0    14.925733    14.925733    1996322.4     13203778    41690.253 
     320    34000    16.287055    346.37136            0    15.487008    15.487008    1996321.6     13203787    41690.253 
     320    35000    10.694418    227.43463            0    10.169091    10.169091    1996317.6     13203768    41690.253 
     320    36000    11.085905    235.76024            0    10.541348    10.541348    1996314.3     13203774    41690.253 
     320    37000    10.835138    230.42726            0    10.302898    10.302898    1996313.3     13203768    41690.253 
     320    38000    11.668382    248.14758            0    11.095212    11.095212      1996317     13203756    41690.253 
     320    39000    11.482576    244.19612            0    10.918534    10.918534    1996315.6     13203771    41690.253 
     320    40000    18.384263    390.97198            0    17.481198    17.481198    1996325.6     13203788    41690.253 
     320    41000     14.91466    317.18511            0    14.182028    14.182028    1996322.5     13203774    41690.253 
     320    42000    14.627962      311.088            0    13.909414    13.909414    1996317.3     13203780    41690.253 
     320    43000    14.533664    309.08258            0    13.819747    13.819747    1996321.7     13203775    41690.253 
     320    44000    11.941501    253.95592            0    11.354916    11.354916    1996320.4     13203762    41690.253 
     320    45000    16.780739    356.87038            0    15.956442    15.956442      1996321     13203784    41690.253 
     320    46000    14.206413    302.12305            0    13.508571    13.508571    1996323.6     13203800    41690.253 
     320    47000    20.708786    440.40684            0    19.691537    19.691537      1996329     13203791    41690.253 
     320    48000     13.22407    281.23189            0    12.574483    12.574483      1996316     13203753    41690.253 
     320    49000    12.196207    259.37266            0     11.59711     11.59711    1996315.7     13203760    41690.253 
     320    50000    9.8817719    210.15235            0    9.3963635    9.3963635    1996316.9     13203760    41690.253 
     320    51000    11.033004    234.63521            0    10.491045    10.491045    1996316.2     13203773    41690.253 
     320    52000    12.095098    257.22242            0    11.500968    11.500968      1996319     13203756    41690.253 
     320    53000     16.73639    355.92723            0    15.914272    15.914272    1996322.3     13203779    41690.253 
     320    54000    18.396187    391.22557            0    17.492537    17.492537    1996326.2     13203786    41690.253 
     320    55000    11.828321    251.54896            0    11.247295    11.247295      1996321     13203770    41690.253 
     320    56000    17.952051    381.78028            0    17.070218    17.070218    1996326.3     13203784    41690.253 
     320    57000    16.844681    358.23023            0    16.017244    16.017244    1996324.4     13203789    41690.253 
     320    58000    13.899087    295.58724            0    13.216341    13.216341    1996322.9     13203785    41690.253 
     320    59000    13.787331    293.21058            0    13.110076    13.110076    1996321.3     13203788    41690.253 
     320    60000    11.522356     245.0421            0    10.956359    10.956359    1996319.5     13203778    41690.253 
     320    61000    13.167352    280.02569            0    12.520551    12.520551    1996317.8     13203790    41690.253 
     320    62000    12.333748    262.29771            0    11.727895    11.727895    1996320.4     13203765    41690.253 
     320    63000    14.180023    301.56182            0    13.483478    13.483478    1996322.1     13203774    41690.253 
     320    64000    17.675658    375.90232            0    16.807401    16.807401    1996325.8     13203797    41690.253 
     320    65000    13.698808    291.32798            0      13.0259      13.0259    1996324.2     13203799    41690.253 
     320    66000    19.867895    422.52391            0    18.891953    18.891953    1996329.2     13203813    41690.253 
     320    67000    14.799662    314.73949            0    14.072679    14.072679    1996323.8     13203782    41690.253 
     320    68000    13.039864    277.31444            0    12.399325    12.399325      1996323     13203782    41690.253 
     320    69000    11.762013    250.13881            0    11.184244    11.184244    1996324.4     13203787    41690.253 
     320    70000    8.2932508     176.3698            0    7.8858731    7.8858731    1996318.9     13203788    41690.253 
     320    71000     13.05372    277.60912            0    12.412501    12.412501    1996319.3     13203780    41690.253 
     320    72000    14.309743    304.32053            0    13.606825    13.606825    1996316.6     13203761    41690.253 
     320    73000    14.991486    318.81894            0    14.255081    14.255081    1996316.1     13203778    41690.253 
     320    74000    12.717664    270.46231            0    12.092952    12.092952    1996316.1     13203768    41690.253 
     320    75000    10.329444    219.67284            0     9.822045     9.822045    1996317.2     13203791    41690.253 
     320    76000    15.753206    335.01817            0    14.979383    14.979383      1996321     13203783    41690.253 
     320    77000     15.31306    325.65775            0    14.560859    14.560859    1996322.4     13203800    41690.253 
     320    78000    17.402486    370.09286            0    16.547648    16.547648      1996324     13203793    41690.253 
     320    79000    13.146457    279.58131            0    12.500682    12.500682    1996322.3     13203785    41690.253 
     320    80000    11.881023    252.66975            0    11.297408    11.297408    1996323.9     13203784    41690.253 
     320    81000    16.267498    345.95546            0    15.468413    15.468413    1996322.5     13203768    41690.253 
     320    82000    13.972662    297.15194            0    13.286302    13.286302    1996321.6     13203800    41690.253 
     320    83000    14.424355    306.75795            0    13.715808    13.715808      1996322     13203771    41690.253 
     320    84000    11.870926    252.45502            0    11.287807    11.287807    1996319.1     13203782    41690.253 
     320    85000    13.783631    293.13188            0    13.106557    13.106557    1996322.1     13203771    41690.253 
     320    86000    12.709131    270.28085            0    12.084838    12.084838      1996320     13203768    41690.253 
     320    87000    12.000941    255.22002            0    11.411436    11.411436    1996321.2     13203776    41690.253 
     320    88000    15.066793    320.42045            0    14.326688    14.326688    1996321.3     13203781    41690.253 
     320    89000    13.976262     297.2285            0    13.289725    13.289725    1996323.8     13203796    41690.253 
     320    90000    13.638847    290.05282            0    12.968885    12.968885    1996318.8     13203774    41690.253 
     320    91000    10.952192    232.91661            0    10.414203    10.414203      1996318     13203778    41690.253 
     320    92000    16.276304    346.14272            0    15.476786    15.476786    1996322.2     13203769    41690.253 
     320    93000    17.095073    363.55523            0    16.255336    16.255336    1996319.8     13203756    41690.253 
     320    94000    13.028845    277.08011            0    12.388847    12.388847    1996319.9     13203764    41690.253 
     320    95000      12.1628    258.66221            0    11.565344    11.565344    1996323.9     13203782    41690.253 
     320    96000    14.013399    298.01829            0    13.325038    13.325038    1996320.8     13203780    41690.253 
     320    97000    13.531033    287.75996            0    12.866367    12.866367    1996325.5     13203777    41690.253 
     320    98000    12.296629     261.5083            0    11.692599    11.692599    1996324.9     13203777    41690.253 
     320    99000    13.319775    283.26722            0    12.665487    12.665487      1996327     13203784    41690.253 
     320   100000    16.814864    357.59611            0    15.988891    15.988891    1996323.7     13203774    41690.253 
     320   101000    17.632301    374.98027            0    16.766174    16.766174      1996323     13203789    41690.253 
     320   102000    16.075869    341.88015            0    15.286197    15.286197    1996325.6     13203789    41690.253 
     320   103000    9.8737741    209.98226            0    9.3887585    9.3887585    1996319.2     13203779    41690.253 
     320   104000    9.3477148    198.79474            0    8.8885402    8.8885402      1996322     13203793    41690.253 
     320   105000    17.459474    371.30481            0    16.601836    16.601836    1996328.3     13203786    41690.253 
     320   106000    10.722012    228.02145            0    10.195329    10.195329    1996322.7     13203783    41690.253 
     320   107000    12.586941    267.68228            0     11.96865     11.96865    1996323.9     13203789    41690.253 
     320   108000     12.38587    263.40617            0    11.777456    11.777456    1996320.6     13203758    41690.253 
     320   109000    12.371308    263.09648            0    11.763609    11.763609    1996321.4     13203786    41690.253 
     320   110000    15.713046    334.16411            0    14.941196    14.941196    1996328.5     13203791    41690.253 
     320   111000    13.940837    296.47514            0    13.256041    13.256041    1996322.6     13203801    41690.253 
     320   112000    17.939525     381.5139            0    17.058307    17.058307    1996326.4     13203788    41690.253 
     320   113000    13.631795    289.90283            0    12.962179    12.962179    1996325.7     13203826    41690.253 
     320   114000    14.367978    305.55899            0      13.6622      13.6622    1996325.4     13203784    41690.253 
     320   115000    11.603012    246.75739            0    11.033053    11.033053    1996320.4     13203789    41690.253 
     320   116000    14.965384    318.26384            0    14.230261    14.230261      1996321     13203762    41690.253 
     320   117000    13.661882    290.54268            0    12.990788    12.990788    1996320.8     13203786    41690.253 
     320   118000    14.998401      318.966            0    14.261656    14.261656    1996322.6     13203776    41690.253 
     320   119000    19.560724    415.99141            0     18.59987     18.59987    1996328.2     13203797    41690.253 
     320   120000    14.404533     306.3364            0    13.696959    13.696959    1996322.7     13203784    41690.253 
     320   121000    7.3434633    156.17099            0    6.9827407    6.9827407    1996313.1     13203766    41690.253 
     320   122000    13.024835    276.99483            0    12.385035    12.385035    1996320.7     13203768    41690.253 
     320   123000    18.771131    399.19938            0    17.849063    17.849063    1996331.2     13203792    41690.253 
     320   124000    12.778892    271.76443            0    12.151172    12.151172    1996322.1     13203795    41690.253 
     320   125000    8.4138283    178.93408            0    8.0005276    8.0005276    1996315.8     13203774    41690.253 
     320   126000    12.258808    260.70397            0    11.656635    11.656635    1996321.5     13203763    41690.253 
     320   127000    11.192451    238.02613            0     10.64266     10.64266    1996325.7     13203775    41690.253 
     320   128000    11.671577    248.21555            0    11.098251    11.098251      1996322     13203791    41690.253 
     320   129000    14.075865    299.34673            0    13.384436    13.384436    1996325.2     13203783    41690.253 
     320   130000    14.845582    315.71604            0    14.116343    14.116343    1996328.6     13203773    41690.253 
     320   131000    15.551517    330.72894            0    14.787602    14.787602      1996329     13203781    41690.253 
     320   132000    14.433767    306.95812            0    13.724758    13.724758    1996328.7     13203799    41690.253 
     320   133000    15.510027    329.84658            0     14.74815     14.74815    1996328.5     13203778    41690.253 
     320   134000    18.410651    391.53318            0     17.50629     17.50629    1996326.2     13203781    41690.253 
     320   135000    12.980479    276.05153            0    12.342857    12.342857    1996323.4     13203779    41690.253 
     320   136000    12.309889     261.7903            0    11.705207    11.705207      1996325     13203794    41690.253 
     320   137000    13.550247    288.16859            0    12.884637    12.884637    1996323.4     13203772    41690.253 
     320   138000    16.759607    356.42098            0    15.936349    15.936349    1996327.9     13203774    41690.253 
     320   139000    17.096807    363.59209            0    16.256984    16.256984    1996329.8     13203793    41690.253 
     320   140000    20.306517    431.85193            0    19.309029    19.309029    1996327.1     13203791    41690.253 
     320   141000    11.085018    235.74138            0    10.540504    10.540504    1996324.3     13203771    41690.253 
     320   142000    10.126582    215.35865            0    9.6291484    9.6291484    1996323.3     13203782    41690.253 
     320   143000    11.985815    254.89833            0    11.397053    11.397053    1996321.7     13203770    41690.253 
     320   144000    14.772871    314.16972            0    14.047204    14.047204    1996325.8     13203769    41690.253 
     320   145000    21.026353    447.16044            0    19.993505    19.993505      1996334     13203807    41690.253 
     320   146000    12.104057    257.41294            0    11.509486    11.509486    1996326.5     13203780    41690.253 
     320   147000    10.891068    231.61671            0    10.356081    10.356081    1996320.8     13203772    41690.253 
     320   148000    15.039279    319.83534            0    14.300526    14.300526      1996322     13203772    41690.253 
     320   149000    13.688981    291.11901            0    13.016557    13.016557    1996324.4     13203787    41690.253 
     320   150000    17.036925    362.31861            0    16.200044    16.200044    1996324.7     13203797    41690.253 
     320   151000    12.912998    274.61641            0    12.278691    12.278691    1996324.6     13203785    41690.253 
     320   152000    14.161821    301.17473            0     13.46617     13.46617    1996325.8     13203792    41690.253 
     320   153000    8.4309097    179.29735            0      8.01677      8.01677      1996324     13203767    41690.253 
     320   154000    14.203906    302.06973            0    13.506187    13.506187      1996327     13203791    41690.253 
     320   155000    21.089458    448.50246            0     20.05351     20.05351    1996332.2     13203791    41690.253 
     320   156000    15.186738     322.9713            0    14.440741    14.440741    1996324.8     13203768    41690.253 
     320   157000    14.863055    316.08763            0    14.132958    14.132958    1996323.8     13203782    41690.253 
     320   158000    19.979891    424.90568            0    18.998447    18.998447      1996328     13203799    41690.253 
     320   159000    14.515947     308.7058            0      13.8029      13.8029    1996323.8     13203760    41690.253 
     320   160000    8.7782739    186.68462            0    8.3470711    8.3470711    1996321.4     13203766    41690.253 
     320   161000    14.228301    302.58853            0    13.529384    13.529384    1996326.2     13203774    41690.253 
     320   162000    15.321293    325.83284            0    14.568687    14.568687    1996328.3     13203797    41690.253 
     320   163000    19.676681    418.45741            0    18.710131    18.710131    1996331.6     13203801    41690.253 
     320   164000    13.658793    290.47699            0    12.987851    12.987851    1996324.5     13203777    41690.253 
     320   165000    10.595334    225.32744            0    10.074875    10.074875    1996322.3     13203770    41690.253 
     320   166000    14.907416    317.03104            0     14.17514     14.17514    1996324.6     13203777    41690.253 
     320   167000    10.765836    228.95344            0    10.237001    10.237001    1996321.2     13203777    41690.253 
     320   168000    13.386887    284.69446            0    12.729302    12.729302    1996326.2     13203788    41690.253 
     320   169000    16.260699    345.81088            0    15.461948    15.461948    1996328.9     13203783    41690.253 
     320   170000    21.544325    458.17598            0    20.486034    20.486034    1996330.8     13203787    41690.253 
     320   171000    22.490107     478.2896            0    21.385357    21.385357    1996329.2     13203803    41690.253 
     320   172000     13.13817    279.40508            0    12.492802    12.492802    1996322.1     13203787    41690.253 
     320   173000    11.673948    248.26597            0    11.100506    11.100506    1996324.3     13203780    41690.253 
     320   174000    13.122319    279.06799            0     12.47773     12.47773    1996328.6     13203788    41690.253 
     320   175000    13.728734    291.96441            0    13.054357    13.054357    1996324.6     13203761    41690.253 
     320   176000    13.490875    286.90593            0    12.828181    12.828181    1996320.5     13203783    41690.253 
     320   177000    11.559664    245.83551            0    10.991834    10.991834    1996318.8     13203767    41690.253 
     320   178000     12.64465    268.90956            0    12.023525    12.023525    1996323.5     13203782    41690.253 
     320   179000    12.993993    276.33892            0    12.355707    12.355707    1996320.7     13203773    41690.253 
     320   180000    10.274082    218.49548            0     9.769403     9.769403    1996318.5     13203768    41690.253 
     320   181000    9.6262914    204.71913            0    9.1534326    9.1534326    1996319.8     13203757    41690.253 
     320   182000    21.320987    453.42633            0    20.273666    20.273666    1996330.3     13203788    41690.253 
     320   183000    16.197002    344.45624            0    15.401379    15.401379    1996326.6     13203772    41690.253 
     320   184000    9.5626329    203.36533            0    9.0929011    9.0929011    1996322.2     13203768    41690.253 
     320   185000    9.1572657    194.74452            0    8.7074462    8.7074462    1996321.9     13203779    41690.253 
     320   186000    14.062764    299.06812            0    13.371979    13.371979    1996322.8     13203787    41690.253 
     320   187000    14.623981    311.00333            0    13.905628    13.905628    1996321.1     13203772    41690.253 
     320   188000    18.247788    388.06962            0    17.351427    17.351427    1996326.8     13203772    41690.253 
     320   189000    14.969317    318.34748            0    14.234001    14.234001    1996325.8     13203781    41690.253 
     320   190000    14.420525    306.67651            0    13.712166    13.712166    1996320.5     13203764    41690.253 
     320   191000    12.869962    273.70118            0    12.237769    12.237769    1996322.2     13203783    41690.253 
     320   192000    12.130332    257.97173            0    11.534471    11.534471    1996320.7     13203776    41690.253 
     320   193000    17.570589    373.66786            0    16.707494    16.707494    1996323.6     13203776    41690.253 
     320   194000    16.243982    345.45534            0    15.446051    15.446051    1996324.9     13203776    41690.253 
     320   195000    14.676761    312.12579            0    13.955815    13.955815    1996323.1     13203777    41690.253 
     320   196000    14.589201    310.26368            0    13.872556    13.872556    1996322.4     13203775    41690.253 
     320   197000    8.9832534    191.04386            0    8.5419817    8.5419817    1996317.6     13203777    41690.253 
     320   198000    14.154785     301.0251            0     13.45948     13.45948    1996322.5     13203786    41690.253 
     320   199000    14.835916    315.51049            0    14.107153    14.107153    1996323.6     13203776    41690.253 
     320   200000    10.143388    215.71606            0    9.6451289    9.6451289    1996312.4     13203769    41690.253 
     320   201000    17.923249    381.16776            0     17.04283     17.04283    1996323.1     13203788    41690.253 
     320   202000    12.151662    258.42535            0    11.554753    11.554753    1996322.6     13203769    41690.253 
     320   203000    11.592621     246.5364            0    11.023173    11.023173    1996321.9     13203777    41690.253 
     320   204000    11.968323    254.52635            0     11.38042     11.38042    1996318.8     13203772    41690.253 
     320   205000    9.2858811    197.47974            0    8.8297438    8.8297438    1996314.9     13203789    41690.253 
     320   206000    16.565439    352.29167            0    15.751718    15.751718    1996324.4     13203782    41690.253 
     320   207000    18.543198    394.35202            0    17.632327    17.632327      1996328     13203781    41690.253 
     320   208000      10.8997     231.8003            0     10.36429     10.36429    1996322.2     13203775    41690.253 
     320   209000    14.427815    306.83153            0    13.719098    13.719098    1996325.7     13203785    41690.253 
     320   210000    15.989155    340.03604            0    15.203742    15.203742    1996322.8     13203788    41690.253 
     320   211000    18.651824    396.66213            0    17.735617    17.735617    1996326.9     13203785    41690.253 
     320   212000    15.067521    320.43595            0    14.327381    14.327381    1996323.7     13203797    41690.253 
     320   213000    14.266863    303.40861            0    13.566052    13.566052    1996321.2     13203781    41690.253 
     320   214000    12.810072    272.42753            0    12.180821    12.180821    1996321.7     13203786    41690.253 
     320   215000    12.535729    266.59316            0    11.919954    11.919954    1996321.6     13203781    41690.253 
     320   216000    18.446865    392.30333            0    17.540725    17.540725    1996321.8     13203772    41690.253 
     320   217000    18.150272    385.99579            0    17.258702    17.258702    1996322.8     13203762    41690.253 
     320   218000    16.575906    352.51426            0    15.761671    15.761671    1996324.3     13203773    41690.253 
     320   219000    16.182352    344.14468            0    15.387449    15.387449    1996324.6     13203784    41690.253 
     320   220000    18.077708    384.45259            0    17.189702    17.189702    1996323.6     13203775    41690.253 
     320   221000    11.224981    238.71792            0    10.673592    10.673592    1996321.5     13203774    41690.253 
     320   222000    10.736195    228.32309            0    10.208816    10.208816    1996318.1     13203779    41690.253 
     320   223000     9.200477    195.66348            0    8.7485349    8.7485349    1996318.8     13203780    41690.253 
     320   224000    15.778646    335.55921            0    15.003574    15.003574      1996320     13203796    41690.253 
     320   225000     15.33382    326.09924            0    14.580598    14.580598    1996322.7     13203795    41690.253 
     320   226000    18.716839    398.04477            0    17.797438    17.797438    1996324.1     13203802    41690.253 
     320   227000     12.96302    275.68023            0    12.326256    12.326256    1996322.6     13203799    41690.253 
     320   228000    16.210985    344.75362            0    15.414676    15.414676    1996323.3     13203775    41690.253 
     320   229000     10.35928    220.30735            0    9.8504157    9.8504157    1996319.1     13203772    41690.253 
     320   230000    13.598185    289.18806            0     12.93022     12.93022    1996319.1     13203769    41690.253 
     320   231000    12.359324    262.84161            0    11.752214    11.752214      1996318     13203785    41690.253 
     320   232000    16.844492    358.22619            0    16.017063    16.017063    1996323.8     13203777    41690.253 
     320   233000    14.028949    298.34897            0    13.339824    13.339824    1996319.9     13203765    41690.253 
     320   234000    12.717427    270.45727            0    12.092726    12.092726    1996321.5     13203778    41690.253 
     320   235000    18.462303    392.63165            0    17.555406    17.555406    1996322.1     13203790    41690.253 
     320   236000    15.025619    319.54483            0    14.287536    14.287536    1996322.6     13203803    41690.253 
     320   237000    13.975354    297.20919            0    13.288862    13.288862    1996324.2     13203776    41690.253 
     320   238000    12.245579    260.42265            0    11.644057    11.644057    1996325.7     13203781    41690.253 
     320   239000    14.293267    303.97014            0    13.591159    13.591159    1996326.9     13203798    41690.253 
     320   240000    18.801205    399.83897            0     17.87766     17.87766    1996329.8     13203779    41690.253 
     320   241000    11.355004    241.48308            0    10.797228    10.797228    1996325.9     13203767    41690.253 
     320   242000    13.344948    283.80256            0    12.689423    12.689423    1996325.2     13203773    41690.253 
     320   243000    11.882372    252.69844            0    11.298691    11.298691    1996318.9     13203796    41690.253 
     320   244000    15.770894    335.39435            0    14.996203    14.996203    1996319.7     13203759    41690.253 
     320   245000    10.877977    231.33831            0    10.343633    10.343633    1996317.4     13203761    41690.253 
     320   246000    14.808302    314.92322            0    14.080894    14.080894    1996323.1     13203777    41690.253 
     320   247000    12.132024    258.00771            0    11.536079    11.536079    1996319.8     13203770    41690.253 
     320   248000    14.410944    306.47274            0    13.703055    13.703055    1996316.4     13203760    41690.253 
     320   249000    11.421482    242.89686            0    10.860441    10.860441    1996314.9     13203777    41690.253 
     320   250000    17.636063    375.06027            0    16.769751    16.769751    1996323.1     13203794    41690.253 
     320   251000    16.950376    360.47799            0    16.117746    16.117746      1996324     13203772    41690.253 
     320   252000    11.964338    254.44159            0    11.376631    11.376631    1996317.9     13203780    41690.253 
     320   253000    13.739069     292.1842            0    13.064184    13.064184    1996318.3     13203780    41690.253 
     320   254000    15.877168    337.65443            0    15.097256    15.097256    1996318.7     13203776    41690.253 
     320   255000    17.374412    369.49582            0    16.520953    16.520953    1996324.2     13203783    41690.253 
     320   256000    13.859192    294.73882            0    13.178406    13.178406    1996323.5     13203769    41690.253 
     320   257000    12.310855    261.81086            0    11.706126    11.706126    1996315.4     13203794    41690.253 
     320   258000    13.335501    283.60165            0     12.68044     12.68044    1996322.2     13203769    41690.253 
     320   259000    17.328109    368.51112            0    16.476925    16.476925    1996328.6     13203794    41690.253 
     320   260000    10.802762    229.73874            0    10.272113    10.272113    1996320.3     13203779    41690.253 
     320   261000    12.198257    259.41627            0    11.599059    11.599059    1996320.2     13203787    41690.253 
     320   262000    14.819249    315.15603            0    14.091304    14.091304    1996321.7     13203787    41690.253 
     320   263000    18.194307    386.93227            0    17.300574    17.300574    1996323.2     13203797    41690.253 
     320   264000    15.063072    320.34134            0     14.32315     14.32315    1996319.4     13203779    41690.253 
     320   265000    12.763061    271.42777            0    12.136119    12.136119    1996321.6     13203764    41690.253 
     320   266000    14.017028    298.09547            0     13.32849     13.32849    1996321.1     13203782    41690.253 
     320   267000    15.373419    326.94138            0    14.618252    14.618252    1996322.7     13203767    41690.253 
     320   268000    11.317371    240.68275            0    10.761443    10.761443    1996319.3     13203780    41690.253 
     320   269000    10.127393    215.37588            0     9.629919     9.629919    1996319.3     13203770    41690.253 
     320   270000     14.62221    310.96567            0    13.903944    13.903944    1996323.1     13203771    41690.253 
     320   271000    16.627243    353.60604            0    15.810487    15.810487    1996325.8     13203770    41690.253 
     320   272000    9.4642024    201.27204            0    8.9993057    8.9993057    1996317.7     13203772    41690.253 
     320   273000     15.17514    322.72465            0    14.429713    14.429713    1996323.8     13203800    41690.253 
     320   274000    16.761735    356.46624            0    15.938372    15.938372    1996324.7     13203770    41690.253 
     320   275000    19.803966    421.16435            0    18.831164    18.831164    1996331.3     13203786    41690.253 
     320   276000    17.648819    375.33154            0    16.781881    16.781881    1996332.3     13203790    41690.253 
     320   277000    20.203787    429.66721            0    19.211345    19.211345    1996331.9     13203795    41690.253 
     320   278000    11.243266    239.10679            0    10.690979    10.690979      1996322     13203783    41690.253 
     320   279000     13.53802    287.90855            0     12.87301     12.87301    1996322.7     13203771    41690.253 
     320   280000    13.254872    281.88694            0    12.603771    12.603771    1996325.8     13203785    41690.253 
     320   281000    9.5518174    203.13532            0    9.0826169    9.0826169    1996318.3     13203790    41690.253 
     320   282000     12.43301    264.40868            0    11.822281    11.822281    1996319.2     13203778    41690.253 
     320   283000    12.160012    258.60292            0    11.562693    11.562693    1996323.7     13203796    41690.253 
     320   284000    14.776535    314.24764            0    14.050688    14.050688    1996322.2     13203800    41690.253 
     320   285000    13.888006    295.35159            0    13.205805    13.205805    1996321.4     13203776    41690.253 
     320   286000    13.213138     280.9994            0    12.564087    12.564087    1996319.8     13203786    41690.253 
     320   287000    13.857882    294.71095            0     13.17716     13.17716    1996320.7     13203771    41690.253 
     320   288000    14.010933    297.96584            0    13.322693    13.322693    1996320.6     13203774    41690.253 
     320   289000    16.784455    356.94941            0    15.959976    15.959976    1996321.9     13203776    41690.253 
     320   290000    10.991045    233.74288            0    10.451147    10.451147    1996316.8     13203780    41690.253 
     320   291000    13.283758    282.50126            0    12.631239    12.631239    1996321.4     13203767    41690.253 
     320   292000    15.682461    333.51367            0    14.912113    14.912113    1996327.2     13203781    41690.253 
     320   293000    17.836191    379.31632            0    16.960048    16.960048    1996329.1     13203787    41690.253 
     320   294000     15.31382     325.6739            0     14.56158     14.56158    1996323.7     13203775    41690.253 
     320   295000    17.528412     372.7709            0    16.667389    16.667389    1996327.7     13203788    41690.253 
     320   296000    18.784234    399.47804            0    17.861522    17.861522    1996326.5     13203766    41690.253 
     320   297000    16.161423     343.6996            0    15.367548    15.367548    1996321.6     13203816    41690.253 
     320   298000    16.036273    341.03808            0    15.248546    15.248546    1996323.1     13203779    41690.253 
     320   299000    9.8352941    209.16392            0    9.3521687    9.3521687      1996317     13203765    41690.253 
     320   300000    11.506846    244.71226            0    10.941611    10.941611    1996319.4     13203782    41690.253 
     320   301000     16.81807    357.66429            0    15.991939    15.991939    1996328.5     13203800    41690.253 
     320   302000    12.009876    255.41002            0    11.419931    11.419931    1996320.8     13203788    41690.253 
     320   303000    9.3447706    198.73212            0    8.8857405    8.8857405    1996315.7     13203762    41690.253 
     320   304000    16.474659    350.36108            0    15.665397    15.665397    1996318.5     13203784    41690.253 
     320   305000    16.940055     360.2585            0    16.107932    16.107932    1996324.6     13203800    41690.253 
     320   306000    16.608392    353.20513            0    15.792561    15.792561    1996325.1     13203788    41690.253 
     320   307000    20.762074     441.5401            0    19.742208    19.742208    1996329.3     13203780    41690.253 
     320   308000    17.710882    376.65142            0    16.840895    16.840895    1996325.4     13203793    41690.253 
     320   309000    8.4513806    179.73269            0    8.0362353    8.0362353    1996316.5     13203768    41690.253 
     320   310000    12.466974    265.13097            0    11.854576    11.854576    1996321.1     13203766    41690.253 
     320   311000    13.085567    278.28639            0    12.442783    12.442783      1996318     13203767    41690.253 
     320   312000    16.045195    341.22781            0    15.257029    15.257029      1996326     13203772    41690.253 
     320   313000    20.126094    428.01493            0    19.137468    19.137468    1996328.2     13203782    41690.253 
     320   314000    14.692665    312.46401            0    13.970938    13.970938    1996321.2     13203766    41690.253 
     320   315000    16.831901    357.95843            0    16.005091    16.005091    1996323.2     13203807    41690.253 
     320   316000    16.876493    358.90674            0    16.047492    16.047492      1996324     13203797    41690.253 
     320   317000      16.1343    343.12278            0    15.341757    15.341757    1996324.9     13203788    41690.253 
     320   318000    13.814778    293.79429            0    13.136175    13.136175    1996322.1     13203760    41690.253 
     320   319000    15.290903    325.18654            0     14.53979     14.53979    1996320.7     13203764    41690.253 
     320   320000    12.925741    274.88742            0    12.290808    12.290808    1996320.7     13203775    41690.253 
     320   321000    10.589819    225.21016            0     10.06963     10.06963    1996317.5     13203756    41690.253 
     320   322000    12.887292    274.06974            0    12.254247    12.254247    1996319.3     13203771    41690.253 
     320   323000    12.525315     266.3717            0    11.910052    11.910052    1996314.3     13203758    41690.253 
     320   324000    17.046393    362.51995            0    16.209047    16.209047    1996323.4     13203781    41690.253 
     320   325000    13.902259    295.65471            0    13.219358    13.219358      1996323     13203791    41690.253 
     320   326000    15.317005    325.74163            0    14.564609    14.564609    1996322.1     13203779    41690.253 
     320   327000    12.707987    270.25652            0     12.08375     12.08375    1996317.8     13203777    41690.253 
     320   328000    20.837673    443.14784            0    19.814093    19.814093    1996326.2     13203771    41690.253 
     320   329000    11.982797    254.83416            0    11.394183    11.394183    1996318.9     13203792    41690.253 
     320   330000    12.693369    269.94566            0    12.069851    12.069851    1996317.7     13203768    41690.253 
     320   331000    13.445504    285.94105            0    12.785039    12.785039    1996319.7     13203762    41690.253 
     320   332000    18.449328    392.35571            0    17.543068    17.543068    1996323.6     13203809    41690.253 
     320   333000    15.378217    327.04341            0    14.622814    14.622814    1996321.7     13203786    41690.253 
     320   334000    14.036977    298.51972            0    13.347459    13.347459    1996322.9     13203808    41690.253 
     320   335000    22.951516    488.10224            0    21.824101    21.824101    1996331.1     13203785    41690.253 
     320   336000     15.84725    337.01818            0    15.068808    15.068808    1996323.8     13203776    41690.253 
     320   337000    13.994742    297.62151            0    13.307298    13.307298    1996321.7     13203762    41690.253 
     320   338000    11.716314    249.16694            0     11.14079     11.14079    1996321.2     13203768    41690.253 
     320   339000    10.826684    230.24747            0     10.29486     10.29486    1996318.1     13203756    41690.253 
     320   340000     14.90424    316.96351            0     14.17212     14.17212    1996322.5     13203776    41690.253 
     320   341000    10.674435    227.00965            0     10.15009     10.15009    1996314.8     13203775    41690.253 
     320   342000    10.857024    230.89271            0     10.32371     10.32371    1996318.1     13203773    41690.253 
     320   343000    13.033985    277.18942            0    12.393735    12.393735    1996319.3     13203771    41690.253 
     320   344000    13.922383    296.08268            0    13.238493    13.238493    1996317.3     13203775    41690.253 
     320   345000    10.858444    230.92291            0     10.32506     10.32506      1996317     13203795    41690.253 
     320   346000    16.909985    359.61901            0    16.079339    16.079339    1996328.7     13203778    41690.253 
     320   347000    12.303412    261.65257            0    11.699049    11.699049    1996319.2     13203778    41690.253 
     320   348000    10.704449    227.64795            0    10.178629    10.178629    1996318.1     13203764    41690.253 
     320   349000     14.50267    308.42345            0    13.790276    13.790276    1996322.6     13203774    41690.253 
     320   350000    13.525215    287.63624            0    12.860835    12.860835    1996320.4     13203776    41690.253 
     320   351000    12.273325    261.01272            0     11.67044     11.67044    1996321.8     13203778    41690.253 
     320   352000    12.763925    271.44613            0     12.13694     12.13694    1996318.8     13203767    41690.253 
     320   353000    12.614197    268.26192            0    11.994567    11.994567    1996315.4     13203763    41690.253 
     320   354000     14.32071    304.55376            0    13.617254    13.617254    1996321.8     13203764    41690.253 
     320   355000    19.128864    406.80718            0    18.189224    18.189224    1996330.2     13203794    41690.253 
     320   356000    11.040219    234.78867            0    10.497906    10.497906    1996321.5     13203779    41690.253 
     320   357000    12.266521    260.86801            0     11.66397     11.66397    1996318.9     13203760    41690.253 
     320   358000    12.791535    272.03332            0    12.163195    12.163195    1996321.3     13203771    41690.253 
     320   359000    8.8234745    187.64589            0    8.3900514    8.3900514    1996316.7     13203763    41690.253 
     320   360000    15.462156    328.82851            0     14.70263     14.70263    1996325.4     13203801    41690.253 
     320   361000    14.173952    301.43272            0    13.477705    13.477705    1996320.8     13203780    41690.253 
     320   362000    10.237177    217.71063            0    9.7343106    9.7343106    1996318.5     13203757    41690.253 
     320   363000     11.50843    244.74595            0    10.943118    10.943118    1996321.9     13203777    41690.253 
     320   364000    13.420684    285.41322            0    12.761439    12.761439    1996324.6     13203777    41690.253 
     320   365000    14.668533     311.9508            0    13.947991    13.947991    1996322.1     13203797    41690.253 
     320   366000    16.199381    344.50684            0    15.403642    15.403642    1996324.3     13203773    41690.253 
     320   367000    12.079422    256.88903            0    11.486061    11.486061    1996323.6     13203775    41690.253 
     320   368000    15.957959    339.37259            0    15.174079    15.174079    1996324.7     13203775    41690.253 
     320   369000    22.612478    480.89204            0    21.501717    21.501717    1996331.6     13203805    41690.253 
     320   370000    11.617398    247.06334            0    11.046733    11.046733    1996318.1     13203779    41690.253 
     320   371000      10.3816    220.78203            0    9.8716393    9.8716393    1996322.4     13203772    41690.253 
     320   372000    13.586242    288.93408            0    12.918864    12.918864    1996324.4     13203771    41690.253 
     320   373000    12.771248    271.60187            0    12.143904    12.143904    1996322.1     13203818    41690.253 
     320   374000    15.418624    327.90273            0    14.661236    14.661236    1996322.1     13203791    41690.253 
     320   375000    16.745042    356.11122            0    15.922499    15.922499    1996321.7     13203758    41690.253 
     320   376000    16.989214    361.30395            0    16.154677    16.154677    1996327.8     13203783    41690.253 
     320   377000    16.068316    341.71952            0    15.279015    15.279015    1996326.2     13203766    41690.253 
     320   378000    17.523541    372.66731            0    16.662757    16.662757    1996325.4     13203789    41690.253 
     320   379000    18.070734    384.30428            0    17.183071    17.183071    1996326.1     13203772    41690.253 
     320   380000    14.797783    314.69952            0    14.070892    14.070892      1996323     13203780    41690.253 
     320   381000    10.778764    229.22838            0    10.249294    10.249294    1996314.3     13203768    41690.253 
     320   382000    17.461045    371.33822            0     16.60333     16.60333    1996327.3     13203790    41690.253 
     320   383000    16.210854    344.75082            0    15.414551    15.414551    1996326.5     13203773    41690.253 
     320   384000    13.750538     292.4281            0    13.075089    13.075089    1996324.5     13203770    41690.253 
     320   385000    9.9407287    211.40616            0    9.4524243    9.4524243    1996319.9     13203772    41690.253 
     320   386000    20.013373    425.61772            0    19.030284    19.030284    1996331.7     13203783    41690.253 
     320   387000    14.123446    300.35863            0     13.42968     13.42968    1996321.1     13203776    41690.253 
     320   388000    14.389278    306.01199            0    13.682454    13.682454    1996320.8     13203792    41690.253 
     320   389000    11.567845    246.00949            0    10.999614    10.999614    1996315.8     13203764    41690.253 
     320   390000    22.651482    481.72151            0    21.538805    21.538805    1996327.6     13203767    41690.253 
     320   391000    14.096371    299.78281            0    13.403934    13.403934    1996322.2     13203769    41690.253 
     320   392000    14.770334    314.11577            0    14.044792    14.044792    1996321.4     13203763    41690.253 
     320   393000    14.507588    308.52805            0    13.794952    13.794952    1996320.7     13203783    41690.253 
     320   394000    10.463677    222.52752            0     9.949684     9.949684    1996318.6     13203787    41690.253 
     320   395000    10.407091    221.32413            0    9.8958778    9.8958778    1996316.9     13203765    41690.253 
     320   396000    19.152952    407.31945            0    18.212129    18.212129      1996328     13203784    41690.253 
     320   397000     13.73824    292.16657            0    13.063396    13.063396    1996322.1     13203772    41690.253 
     320   398000    11.984565    254.87175            0    11.395864    11.395864    1996319.9     13203779    41690.253 
     320   399000    11.458372    243.68137            0    10.895518    10.895518    1996318.6     13203762    41690.253 
     320   400000    13.250651    281.79717            0    12.599758    12.599758    1996319.3     13203779    41690.253 
     320   401000    12.313106    261.85873            0    11.708267    11.708267      1996321     13203758    41690.253 
     320   402000     12.15688    258.53632            0    11.559715    11.559715    1996319.1     13203786    41690.253 
     320   403000    14.797654    314.69677            0     14.07077     14.07077    1996323.7     13203766    41690.253 
     320   404000    17.735003    377.16439            0    16.863831    16.863831      1996328     13203786    41690.253 
     320   405000    14.361904    305.42982            0    13.656424    13.656424    1996323.4     13203778    41690.253 
     320   406000    11.420465    242.87521            0    10.859473    10.859473    1996318.5     13203762    41690.253 
     320   407000    9.6348831    204.90185            0    9.1616023    9.1616023    1996317.5     13203765    41690.253 
     320   408000    12.436653    264.48615            0    11.825745    11.825745    1996323.7     13203783    41690.253 
     320   409000    10.259298    218.18107            0    9.7553451    9.7553451    1996319.1     13203771    41690.253 
     320   410000    13.792041    293.31073            0    13.114554    13.114554    1996317.7     13203763    41690.253 
     320   411000    22.121809    470.45715            0    21.035151    21.035151    1996329.7     13203779    41690.253 
     320   412000    15.524861    330.16204            0    14.762255    14.762255    1996321.8     13203772    41690.253 
     320   413000    13.658239    290.46521            0    12.987324    12.987324    1996320.5     13203775    41690.253 
     320   414000    11.025669    234.47924            0    10.484071    10.484071    1996319.2     13203781    41690.253 
     320   415000    14.204366    302.07952            0    13.506625    13.506625    1996322.5     13203762    41690.253 
     320   416000    16.771464    356.67313            0    15.947623    15.947623      1996320     13203788    41690.253 
     320   417000    14.681277    312.22183            0    13.960109    13.960109    1996319.4     13203784    41690.253 
     320   418000    10.656172    226.62127            0    10.132724    10.132724    1996317.9     13203763    41690.253 
     320   419000    14.965272    318.26145            0    14.230154    14.230154      1996324     13203763    41690.253 
     320   420000    12.842385    273.11472            0    12.211546    12.211546    1996323.3     13203781    41690.253 
     320   421000     15.88516    337.82441            0    15.104856    15.104856    1996326.4     13203783    41690.253 
     320   422000    17.074293    363.11329            0    16.235576    16.235576    1996323.8     13203766    41690.253 
     320   423000    11.408103    242.61231            0    10.847718    10.847718    1996322.5     13203779    41690.253 
     320   424000    11.090597    235.86002            0    10.545809    10.545809    1996320.4     13203763    41690.253 
     320   425000    15.159737    322.39708            0    14.415067    14.415067    1996319.1     13203780    41690.253 
     320   426000    15.840438    336.87331            0     15.06233     15.06233    1996319.1     13203767    41690.253 
     320   427000    18.881677    401.55034            0    17.954179    17.954179    1996325.2     13203773    41690.253 
     320   428000    13.982414    297.35935            0    13.295576    13.295576    1996320.3     13203772    41690.253 
     320   429000    11.412962    242.71566            0    10.852339    10.852339    1996315.9     13203766    41690.253 
     320   430000    11.173501    237.62312            0    10.624641    10.624641    1996320.6     13203778    41690.253 
     320   431000    13.372214    284.38242            0    12.715349    12.715349    1996323.1     13203772    41690.253 
     320   432000    15.922472    338.61791            0    15.140335    15.140335    1996326.1     13203781    41690.253 
     320   433000    11.759892     250.0937            0    11.182227    11.182227    1996322.9     13203797    41690.253 
     320   434000    14.537691    309.16823            0    13.823577    13.823577    1996321.6     13203785    41690.253 
     320   435000    12.002556    255.25436            0    11.412972    11.412972    1996320.4     13203781    41690.253 
     320   436000    19.824677     421.6048            0    18.850857    18.850857    1996327.7     13203773    41690.253 
     320   437000    19.025797    404.61529            0     18.09122     18.09122    1996325.8     13203778    41690.253 
     320   438000    12.176914    258.96237            0    11.578764    11.578764    1996315.9     13203767    41690.253 
     320   439000    11.053092    235.06243            0    10.510147    10.510147    1996318.7     13203760    41690.253 
     320   440000    14.745901    313.59616            0    14.021559    14.021559    1996323.6     13203779    41690.253 
     320   441000    19.068024     405.5133            0    18.131372    18.131372    1996328.2     13203784    41690.253 
     320   442000    12.089187     257.0967            0    11.495347    11.495347    1996323.7     13203780    41690.253 
     320   443000    14.176121    301.47884            0    13.479767    13.479767    1996318.2     13203774    41690.253 
     320   444000    17.771513    377.94085            0    16.898548    16.898548    1996328.1     13203784    41690.253 
     320   445000    15.370529    326.87992            0    14.615504    14.615504    1996323.9     13203780    41690.253 
     320   446000    14.357005    305.32563            0    13.651766    13.651766    1996326.1     13203790    41690.253 
     320   447000    13.886057    295.31014            0    13.203952    13.203952    1996323.4     13203789    41690.253 
     320   448000     14.87934    316.43397            0    14.148443    14.148443    1996322.2     13203788    41690.253 
     320   449000    11.849066    251.99014            0    11.267021    11.267021    1996322.4     13203782    41690.253 
     320   450000    15.911473    338.38399            0    15.129876    15.129876    1996324.5     13203776    41690.253 
     320   451000    19.743032    419.86848            0    18.773223    18.773223    1996329.2     13203783    41690.253 
     320   452000    17.639979    375.14356            0    16.773475    16.773475    1996326.6     13203764    41690.253 
     320   453000    12.962786    275.67526            0    12.326034    12.326034    1996321.4     13203772    41690.253 
     320   454000    10.011253    212.90599            0    9.5194846    9.5194846    1996317.8     13203766    41690.253 
     320   455000    14.263874    303.34504            0    13.563209    13.563209    1996320.6     13203762    41690.253 
     320   456000    20.365592    433.10826            0    19.365202    19.365202    1996330.3     13203768    41690.253 
     320   457000    11.941315    253.95197            0    11.354739    11.354739    1996321.3     13203776    41690.253 
     320   458000    11.290826    240.11824            0    10.736203    10.736203    1996322.2     13203785    41690.253 
     320   459000    15.040328    319.85764            0    14.301523    14.301523    1996324.5     13203782    41690.253 
     320   460000    15.297115    325.31864            0    14.545696    14.545696    1996325.8     13203806    41690.253 
     320   461000    11.435136    243.18723            0    10.873424    10.873424      1996321     13203780    41690.253 
     320   462000    10.454702    222.33666            0    9.9411504    9.9411504    1996320.4     13203763    41690.253 
     320   463000    15.290716    325.18256            0    14.539612    14.539612      1996319     13203761    41690.253 
     320   464000    20.748553    441.25257            0    19.729351    19.729351    1996328.4     13203773    41690.253 
     320   465000    13.616928    289.58666            0    12.948042    12.948042    1996323.8     13203799    41690.253 
     320   466000    11.825632    251.49178            0    11.244738    11.244738    1996320.3     13203787    41690.253 
     320   467000    17.859761    379.81757            0    16.982461    16.982461    1996327.3     13203790    41690.253 
     320   468000    16.552839    352.02372            0    15.739737    15.739737    1996325.2     13203787    41690.253 
     320   469000    15.281978    324.99673            0    14.531303    14.531303    1996324.7     13203786    41690.253 
     320   470000     13.34956    283.90064            0    12.693808    12.693808    1996321.8     13203778    41690.253 
     320   471000    15.786958    335.73598            0    15.011478    15.011478      1996325     13203780    41690.253 
     320   472000    15.048658     320.0348            0    14.309444    14.309444    1996325.3     13203779    41690.253 
     320   473000    14.513201    308.64741            0     13.80029     13.80029      1996325     13203777    41690.253 
     320   474000    11.143225    236.97926            0    10.595852    10.595852    1996320.9     13203774    41690.253 
     320   475000    20.760737    441.51167            0    19.740936    19.740936    1996332.2     13203779    41690.253 
     320   476000    15.855397    337.19145            0    15.076555    15.076555    1996325.1     13203788    41690.253 
     320   477000     18.39487    391.19757            0    17.491285    17.491285    1996328.4     13203779    41690.253 
     320   478000    9.3525247    198.89703            0    8.8931138    8.8931138    1996321.1     13203780    41690.253 
     320   479000    15.966284    339.54963            0    15.181994    15.181994    1996323.8     13203774    41690.253 
     320   480000    17.993876    382.66977            0    17.109988    17.109988    1996325.4     13203780    41690.253 
     320   481000      11.8195    251.36136            0    11.238907    11.238907    1996318.4     13203782    41690.253 
     320   482000    14.785914     314.4471            0    14.059606    14.059606      1996322     13203780    41690.253 
     320   483000    12.951996    275.44578            0    12.315773    12.315773    1996322.3     13203769    41690.253 
     320   484000    12.534224    266.56116            0    11.918523    11.918523    1996318.5     13203763    41690.253 
     320   485000    18.961913    403.25667            0    18.030473    18.030473    1996324.7     13203764    41690.253 
     320   486000    8.3714198    178.03219            0    7.9602023    7.9602023    1996320.1     13203776    41690.253 
     320   487000      11.3714    241.83178            0    10.812819    10.812819    1996324.1     13203775    41690.253 
     320   488000    15.713804    334.18023            0    14.941917    14.941917    1996320.5     13203785    41690.253 
     320   489000    20.068772    426.79589            0    19.082962    19.082962    1996325.8     13203769    41690.253 
     320   490000    17.877615    380.19729            0    16.999438    16.999438    1996323.4     13203804    41690.253 
     320   491000    17.900608    380.68627            0    17.021302    17.021302    1996321.3     13203783    41690.253 
     320   492000    11.105548    236.17798            0    10.560026    10.560026    1996324.6     13203788    41690.253 
     320   493000    10.528812    223.91274            0     10.01162     10.01162      1996322     13203774    41690.253 
     320   494000    10.482959     222.9376            0    9.9680196    9.9680196    1996320.5     13203774    41690.253 
     320   495000    20.095114     427.3561            0     19.10801     19.10801    1996332.8     13203777    41690.253 
     320   496000    9.9386123    211.36115            0    9.4504118    9.4504118    1996317.7     13203786    41690.253 
     320   497000    11.662938    248.03182            0    11.090036    11.090036    1996322.9     13203771    41690.253 
     320   498000    17.781551    378.15431            0    16.908093    16.908093    1996329.1     13203782    41690.253 
     320   499000    14.788024    314.49198            0    14.061613    14.061613    1996330.9     13203781    41690.253 
     320   500000    11.621642    247.15358            0    11.050768    11.050768    1996325.4     13203772    41690.253 
     320   501000    8.4751116    180.23737            0    8.0588006    8.0588006    1996316.2     13203767    41690.253 
     320   502000    12.933294    275.04806            0     12.29799     12.29799    1996318.5     13203778    41690.253 
     320   503000     13.70322    291.42182            0    13.030096    13.030096      1996322     13203804    41690.253 
     320   504000    14.946477    317.86175            0    14.212282    14.212282    1996325.8     13203775    41690.253 
     320   505000    19.621195    417.27741            0     18.65737     18.65737    1996331.6     13203788    41690.253 
     320   506000    15.118617    321.52258            0    14.375966    14.375966    1996327.8     13203787    41690.253 
     320   507000    13.266961    282.14404            0    12.615267    12.615267    1996325.2     13203770    41690.253 
     320   508000     7.908073    168.17835            0    7.5196159    7.5196159    1996320.2     13203811    41690.253 
     320   509000    12.019909     255.6234            0    11.429472    11.429472    1996323.4     13203773    41690.253 
     320   510000    16.479471    350.46341            0    15.669973    15.669973    1996325.7     13203768    41690.253 
     320   511000    10.974709    233.39548            0    10.435614    10.435614      1996315     13203773    41690.253 
     320   512000    11.064138    235.29734            0     10.52065     10.52065    1996320.9     13203779    41690.253 
     320   513000    14.619969      310.918            0    13.901813    13.901813    1996324.3     13203785    41690.253 
     320   514000      14.7406    313.48344            0    14.016519    14.016519    1996322.8     13203769    41690.253 
     320   515000    20.175008    429.05517            0     19.18398     19.18398      1996328     13203780    41690.253 
     320   516000     15.42466     328.0311            0    14.666976    14.666976    1996324.4     13203786    41690.253 
[...]
     320   849000     7.914848    168.32243            0     7.526058     7.526058    1996315.2     13203753    41690.253 
     320   850000    14.343553    305.03957            0    13.638975    13.638975    1996320.1     13203781    41690.253 
     320   851000    14.147687    300.87414            0     13.45273     13.45273    1996318.2     13203762    41690.253 
     320   852000    13.774331     292.9341            0    13.097714    13.097714    1996322.4     13203770    41690.253 
     320   853000    9.0529755    192.52661            0    8.6082789    8.6082789      1996320     13203766    41690.253 
     320   854000    17.358038    369.14761            0    16.505384    16.505384    1996328.9     13203785    41690.253 
     320   855000    16.289014    346.41304            0    15.488872    15.488872    1996329.6     13203791    41690.253 
     320   856000    16.248155    345.54411            0     15.45002     15.45002    1996326.8     13203806    41690.253 
     320   857000    12.412895     263.9809            0    11.803154    11.803154    1996319.3     13203775    41690.253 
     320   858000    17.031955    362.21292            0    16.195319    16.195319    1996328.7     13203790    41690.253 
     320   859000    14.591782    310.31857            0    13.875011    13.875011    1996325.1     13203784    41690.253 
     320   860000    11.800525    250.95783            0    11.220864    11.220864    1996322.6     13203773    41690.253 
     320   861000    12.470382    265.20346            0    11.857817    11.857817    1996323.4     13203790    41690.253 
     320   862000    16.923395     359.9042            0    16.092091    16.092091    1996330.3     13203789    41690.253 
     320   863000    15.681803    333.49968            0    14.911488    14.911488    1996325.9     13203782    41690.253 
     320   864000    12.744708    271.03746            0    12.118668    12.118668    1996322.1     13203771    41690.253 
     320   865000    9.1346076    194.26265            0    8.6859011    8.6859011    1996317.1     13203761    41690.253 
     320   866000    17.007554    361.69398            0    16.172116    16.172116    1996325.3     13203796    41690.253 
     320   867000    16.540395    351.75907            0    15.727905    15.727905    1996324.6     13203775    41690.253 
     320   868000    11.610592    246.91858            0    11.040261    11.040261    1996319.1     13203765    41690.253 
     320   869000    10.156357    215.99186            0    9.6574607    9.6574607    1996320.8     13203773    41690.253 
     320   870000     12.49156    265.65383            0    11.877954    11.877954    1996320.8     13203780    41690.253 
     320   871000    11.029497    234.56064            0    10.487711    10.487711    1996317.6     13203769    41690.253 
     320   872000    11.793922     250.8174            0    11.214585    11.214585    1996323.2     13203795    41690.253 
     320   873000    16.872475     358.8213            0    16.043672    16.043672    1996326.5     13203787    41690.253 
     320   874000    18.273077    388.60743            0    17.375474    17.375474    1996325.8     13203785    41690.253 
     320   875000    10.696545    227.47986            0    10.171114    10.171114    1996322.3     13203769    41690.253 
     320   876000    15.916857     338.4985            0    15.134996    15.134996    1996326.8     13203780    41690.253 
     320   877000    15.243476    324.17792            0    14.494692    14.494692    1996326.4     13203792    41690.253 
     320   878000    12.260792    260.74618            0    11.658523    11.658523    1996319.8     13203780    41690.253 
     320   879000    11.893987    252.94547            0    11.309736    11.309736    1996318.2     13203777    41690.253 
     320   880000    21.460216    456.38726            0    20.406056    20.406056    1996329.7     13203770    41690.253 
     320   881000    14.014247    298.03632            0    13.325845    13.325845      1996321     13203789    41690.253 
     320   882000    13.984138    297.39601            0    13.297215    13.297215      1996323     13203795    41690.253 
     320   883000    15.775664    335.49578            0    15.000738    15.000738    1996321.9     13203802    41690.253 
     320   884000    19.697988    418.91055            0    18.730392    18.730392      1996324     13203778    41690.253 
     320   885000     13.35835    284.08757            0    12.702166    12.702166    1996322.3     13203772    41690.253 
     320   886000    10.713178    227.83358            0     10.18693     10.18693    1996323.7     13203782    41690.253 
     320   887000    18.128284    385.52816            0    17.237793    17.237793    1996327.5     13203783    41690.253 
     320   888000    10.238652    217.74199            0    9.7357127    9.7357127    1996316.3     13203772    41690.253 
     320   889000    18.121578    385.38555            0    17.231417    17.231417    1996326.1     13203776    41690.253 
     320   890000    18.193845    386.92244            0    17.300135    17.300135    1996330.3     13203778    41690.253 
     320   891000    19.075221    405.66636            0    18.138215    18.138215    1996332.3     13203791    41690.253 
     320   892000    18.679349    397.24749            0     17.76179     17.76179    1996328.6     13203781    41690.253 
     320   893000    12.838905    273.04071            0    12.208237    12.208237    1996320.5     13203759    41690.253 
     320   894000    7.9805414    169.71951            0    7.5885245    7.5885245    1996318.8     13203766    41690.253 
     320   895000    9.0240935    191.91239            0    8.5808157    8.5808157    1996317.4     13203762    41690.253 
     320   896000     8.800481     187.1569            0    8.3681874    8.3681874    1996316.7     13203779    41690.253 
     320   897000    16.601439    353.05726            0    15.785949    15.785949    1996326.7     13203775    41690.253 
     320   898000    13.358819    284.09754            0    12.702612    12.702612    1996322.3     13203786    41690.253 
     320   899000     14.73845    313.43771            0    14.014474    14.014474    1996324.1     13203771    41690.253 
     320   900000    12.893126    274.19381            0    12.259795    12.259795      1996322     13203780    41690.253 
     320   901000    23.403706    497.71881            0    22.254079    22.254079    1996331.9     13203787    41690.253 
     320   902000    18.809458    400.01448            0    17.885508    17.885508    1996323.9     13203786    41690.253 
     320   903000    11.833883    251.66725            0    11.252584    11.252584    1996316.2     13203763    41690.253 
     320   904000    12.816521    272.56467            0    12.186953    12.186953    1996318.1     13203754    41690.253 
     320   905000    16.787844    357.02147            0    15.963198    15.963198    1996317.9     13203780    41690.253 
     320   906000    20.720045     440.6463            0    19.702244    19.702244    1996319.2     13203770    41690.253 
     320   907000    14.757171    313.83584            0    14.032276    14.032276    1996322.8     13203777    41690.253 
     320   908000    11.847441    251.95558            0    11.265476    11.265476    1996319.2     13203784    41690.253 
     320   909000    14.448537    307.27222            0    13.738802    13.738802    1996321.7     13203762    41690.253 
     320   910000    12.954432    275.49759            0     12.31809     12.31809    1996317.2     13203767    41690.253 
     320   911000    20.696793     440.1518            0    19.680134    19.680134    1996323.5     13203767    41690.253 
     320   912000    19.713752    419.24579            0    18.745381    18.745381    1996325.4     13203808    41690.253 
     320   913000    16.603079    353.09215            0    15.787509    15.787509    1996317.2     13203763    41690.253 
     320   914000    11.520138    244.99494            0    10.954251    10.954251    1996316.5     13203772    41690.253 
     320   915000    13.481378    286.70398            0    12.819152    12.819152    1996320.7     13203766    41690.253 
     320   916000    15.945388    339.10524            0    15.162125    15.162125    1996323.3     13203792    41690.253 
     320   917000    16.857501    358.50285            0    16.029433    16.029433    1996322.5     13203771    41690.253 
     320   918000    13.603471    289.30048            0    12.935247    12.935247    1996315.2     13203756    41690.253 
     320   919000    12.289036    261.34683            0    11.685379    11.685379    1996314.4     13203759    41690.253 
     320   920000    13.670649    290.72915            0    12.999125    12.999125    1996319.5     13203767    41690.253 
     320   921000    12.051203    256.28892            0    11.459229    11.459229    1996318.5     13203766    41690.253 
     320   922000    19.815157    421.40235            0    18.841805    18.841805    1996322.5     13203766    41690.253 
     320   923000    15.949615    339.19515            0    15.166145    15.166145    1996321.6     13203784    41690.253 
     320   924000    9.1468934    194.52393            0    8.6975835    8.6975835    1996317.7     13203768    41690.253 
     320   925000    12.541309    266.71185            0     11.92526     11.92526    1996317.4     13203768    41690.253 
     320   926000      15.0015    319.03191            0    14.264603    14.264603    1996323.4     13203799    41690.253 
     320   927000    13.473007    286.52596            0    12.811192    12.811192    1996323.8     13203780    41690.253 
     320   928000    15.040577    319.86295            0     14.30176     14.30176    1996325.9     13203772    41690.253 
     320   929000    12.187578    259.18917            0    11.588905    11.588905    1996320.6     13203775    41690.253 
     320   930000    14.463452     307.5894            0    13.752984    13.752984    1996324.1     13203783    41690.253 
     320   931000    8.0056854    170.25424            0    7.6124334    7.6124334    1996311.8     13203775    41690.253 
     320   932000    11.380932    242.03449            0    10.821883    10.821883    1996316.3     13203797    41690.253 
     320   933000     9.459649     201.1752            0     8.994976     8.994976    1996321.7     13203787    41690.253 
     320   934000    14.245224    302.94844            0    13.545476    13.545476    1996322.4     13203764    41690.253 
     320   935000    15.028866    319.61389            0    14.290624    14.290624    1996319.4     13203779    41690.253 
     320   936000    12.042062    256.09452            0    11.450537    11.450537    1996317.7     13203773    41690.253 
     320   937000    11.588664    246.45225            0     11.01941     11.01941    1996316.4     13203767    41690.253 
     320   938000    8.3888501    178.40288            0    7.9767765    7.9767765    1996317.6     13203773    41690.253 
     320   939000    15.313845    325.67444            0    14.561605    14.561605    1996320.1     13203760    41690.253 
     320   940000    13.307431     283.0047            0    12.653749    12.653749    1996320.6     13203792    41690.253 
     320   941000    10.605981    225.55386            0    10.084998    10.084998    1996319.3     13203781    41690.253 
     320   942000    14.457453    307.46183            0     13.74728     13.74728    1996319.9     13203765    41690.253 
     320   943000    12.169316     258.8008            0     11.57154     11.57154    1996318.6     13203771    41690.253 
     320   944000    9.2896481    197.55985            0    8.8333258    8.8333258    1996317.3     13203768    41690.253 
     320   945000    17.688293    376.17103            0    16.819416    16.819416    1996327.4     13203783    41690.253 
     320   946000    16.922023    359.87503            0    16.090787    16.090787    1996324.3     13203768    41690.253 
     320   947000    11.918911     253.4755            0    11.333435    11.333435    1996318.8     13203784    41690.253 
     320   948000    14.451281    307.33057            0    13.741411    13.741411    1996319.5     13203763    41690.253 
     320   949000     18.58408    395.22143            0      17.6712      17.6712    1996331.2     13203783    41690.253 
     320   950000    15.618017    332.14316            0    14.850835    14.850835    1996324.2     13203782    41690.253 
     320   951000    14.045264    298.69595            0    13.355339    13.355339    1996325.2     13203773    41690.253 
     320   952000    12.560254    267.11474            0    11.943275    11.943275    1996321.1     13203760    41690.253 
     320   953000      9.74676     207.2811            0    9.2679837    9.2679837      1996313     13203763    41690.253 
     320   954000    14.434908    306.98237            0    13.725842    13.725842    1996321.6     13203774    41690.253 
     320   955000    15.450926    328.58969            0    14.691952    14.691952    1996322.6     13203771    41690.253 
     320   956000    18.443985    392.24209            0    17.537988    17.537988    1996327.9     13203777    41690.253 
     320   957000    10.616883    225.78571            0    10.095365    10.095365    1996320.9     13203786    41690.253 
     320   958000     15.66405    333.12212            0    14.894607    14.894607    1996325.1     13203795    41690.253 
     320   959000    20.506725    436.10969            0    19.499402    19.499402    1996332.8     13203778    41690.253 
     320   960000    12.565288     267.2218            0    11.948061    11.948061    1996322.5     13203780    41690.253 
     320   961000     12.24226    260.35207            0    11.640901    11.640901    1996321.2     13203767    41690.253 
     320   962000    15.747581    334.89855            0    14.974034    14.974034    1996324.7     13203796    41690.253 
     320   963000    12.504552    265.93014            0    11.890309    11.890309    1996319.9     13203778    41690.253 
     320   964000    10.515661    223.63306            0     9.999115     9.999115    1996318.9     13203765    41690.253 
     320   965000    17.415177    370.36276            0    16.559715    16.559715      1996326     13203792    41690.253 
     320   966000    15.094667    321.01324            0    14.353193    14.353193    1996324.1     13203778    41690.253 
     320   967000    13.548882    288.13955            0    12.883339    12.883339    1996322.2     13203781    41690.253 
     320   968000    14.523382    308.86392            0     13.80997     13.80997    1996318.8     13203772    41690.253 
     320   969000    13.499179    287.08255            0    12.836078    12.836078    1996320.1     13203772    41690.253 
     320   970000    13.934983    296.35064            0    13.250474    13.250474    1996320.6     13203765    41690.253 
     320   971000    17.726914    376.99236            0    16.856139    16.856139    1996326.7     13203817    41690.253 
     320   972000    12.751116    271.17373            0    12.124761    12.124761      1996320     13203782    41690.253 
     320   973000    12.041032    256.07262            0    11.449558    11.449558    1996317.9     13203768    41690.253 
     320   974000     13.85292    294.60544            0    13.172443    13.172443    1996316.9     13203776    41690.253 
     320   975000     15.76491    335.26708            0    14.990512    14.990512    1996319.4     13203756    41690.253 
     320   976000    13.149801    279.65243            0    12.503862    12.503862    1996318.8     13203762    41690.253 
     320   977000    14.408511      306.421            0    13.700742    13.700742    1996320.8     13203769    41690.253 
     320   978000    19.268637    409.77968            0    18.322131    18.322131      1996321     13203796    41690.253 
     320   979000      14.5086    308.54956            0    13.795914    13.795914    1996320.2     13203774    41690.253 
     320   980000     15.51808    330.01784            0    14.755807    14.755807    1996321.5     13203786    41690.253 
     320   981000    16.660526    354.31386            0    15.842135    15.842135      1996322     13203775    41690.253 
     320   982000    12.812188    272.47252            0    12.182833    12.182833      1996315     13203764    41690.253 
     320   983000    12.969496    275.81794            0    12.332413    12.332413      1996319     13203777    41690.253 
     320   984000    13.296673    282.77591            0    12.643519    12.643519    1996317.4     13203769    41690.253 
     320   985000    15.496073    329.54981            0    14.734881    14.734881    1996320.7     13203772    41690.253 
     320   986000    17.871378    380.06464            0    16.993507    16.993507      1996320     13203780    41690.253 
     320   987000    20.163813    428.81708            0    19.173334    19.173334    1996321.6     13203794    41690.253 
     320   988000    13.339385    283.68426            0    12.684134    12.684134    1996321.2     13203789    41690.253 
     320   989000    11.727974    249.41492            0    11.151877    11.151877    1996318.3     13203780    41690.253 
     320   990000    12.578303    267.49858            0    11.960437    11.960437    1996317.3     13203766    41690.253 
     320   991000    16.449796    349.83234            0    15.641756    15.641756    1996323.4     13203767    41690.253 
     320   992000    15.614043    332.05865            0    14.847057    14.847057      1996320     13203779    41690.253 
     320   993000    16.912824    359.67939            0    16.082039    16.082039    1996320.4     13203769    41690.253 
     320   994000    19.278488    409.98918            0    18.331498    18.331498    1996322.8     13203776    41690.253 
     320   995000    12.821838    272.67775            0    12.192009    12.192009    1996318.9     13203778    41690.253 
     320   996000    9.4140144    200.20471            0     8.951583     8.951583    1996315.9     13203770    41690.253 
     320   997000    14.615952    310.83258            0    13.897993    13.897993    1996319.9     13203766    41690.253 
     320   998000    14.143949    300.79465            0    13.449176    13.449176    1996318.8     13203786    41690.253 
     320   999000    15.853941    337.16048            0     15.07517     15.07517    1996320.8     13203778    41690.253 
     320  1000000     17.84999    379.60978            0     16.97317     16.97317    1996324.5     13203769    41690.253 
Loop time of 72.4761 on 4 procs for 1000000 steps with 320 atoms

Performance: 1192.118 ns/day, 0.020 hours/ns, 13797.659 timesteps/s
99.7% CPU use with 4 MPI tasks x no OpenMP threads

MPI task timing breakdown:
Section |  min time  |  avg time  |  max time  |%varavg| %total
---------------------------------------------------------------
Pair    | 43.771     | 44.071     | 44.56      |   4.5 | 60.81
Bond    | 0.079031   | 0.087097   | 0.094139   |   2.2 |  0.12
Neigh   | 3.657      | 3.809      | 3.9761     |   5.8 |  5.26
Comm    | 18.577     | 19.251     | 19.711     |   9.5 | 26.56
Output  | 0.466      | 0.4693     | 0.47876    |   0.8 |  0.65
Modify  | 2.5544     | 2.5796     | 2.6152     |   1.4 |  3.56
Other   |            | 2.209      |            |       |  3.05

Nlocal:        80.0000 ave          84 max          78 min
Histogram: 1 2 0 0 0 0 0 0 0 1
Nghost:        777.500 ave         784 max         769 min
Histogram: 1 0 0 1 0 0 0 0 0 2
Neighs:        3649.25 ave        3842 max        3556 min
Histogram: 1 2 0 0 0 0 0 0 0 1

Total # of neighbors = 14597
Ave neighs/atom = 45.615625
Ave special neighs/atom = 0.0000000
Neighbor list builds = 11262
Dangerous builds = 0
write_data		data.MFI_CH4
System init for write_data ...
Total wall time: 0:01:17
